ITEM: TIMESTEP
0
ITEM: NUMBER OF ATOMS
147
ITEM: BOX BOUNDS pp pp pp
0.0000000000000000e+00 3.2000000000000000e+01
0.0000000000000000e+00 3.2000000000000000e+01
0.0000000000000000e+00 3.2000000000000000e+01
ITEM: ATOMS id mol type x y z ix iy iz c_quat[1] c_quat[2] c_quat[3] c_quat[4]
1 1 3 2.840375e+01 6.247600e+00 8.589354e+00 -1 0 0 -6.172833e-05 6.708207e-01 -6.692576e-01 3.195213e-01
2 1 2 2.887537e+01 6.015298e+00 8.478525e+00 -1 0 0 9.852991e-02 -4.319484e-01 8.434057e-01 -3.039397e-01
3 1 4 2.920856e+01 5.603239e+00 8.389695e+00 -1 0 0 1.873767e-01 -1.509728e-01 9.354998e-01 -2.587226e-01
4 1 1 2.934019e+01 5.104686e+00 8.238739e+00 -1 0 0 2.580363e-01 1.446388e-01 9.364874e-01 -1.883831e-01
5 1 3 2.928375e+01 4.645699e+00 7.965171e+00 -1 0 0 3.035787e-01 4.262459e-01 8.462862e-01 -9.977011e-02
6 1 2 2.912422e+01 4.337370e+00 7.555096e+00 -1 0 0 3.195519e-01 6.662749e-01 6.737675e-01 -1.271434e-03
7 1 1 2.898569e+01 4.233482e+00 7.046469e+00 -1 0 0 3.044510e-01 8.414954e-01 4.355765e-01 9.730500e-02
8 1 2 2.898426e+01 4.310244e+00 6.514692e+00 -1 0 0 2.595638e-01 9.348154e-01 1.550630e-01 1.862857e-01
9 1 2 2.918402e+01 4.475138e+00 6.043975e+00 -1 0 0 1.895034e-01 9.371087e-01 -1.405733e-01 2.572060e-01
10 1 4 2.957257e+01 4.602194e+00 5.695304e+00 -1 0 0 1.009914e-01 8.481700e-01 -4.225089e-01 3.031413e-01
11 1 1 3.006575e+01 4.579855e+00 5.483255e+00 -1 0 0 2.738650e-03 6.766744e-01 -6.633353e-01 3.195161e-01
12 1 2 3.053975e+01 4.353276e+00 5.370670e+00 -1 0 0 9.593771e-02 -4.393171e-01 8.395664e-01 -3.048354e-01
13 1 2 3.087797e+01 3.945218e+00 5.282382e+00 -1 0 0 1.851491e-01 -1.591512e-01 9.341202e-01 -2.604038e-01
14 1 2 3.101538e+01 3.447410e+00 5.134119e+00 -1 0 0 2.564230e-01 1.364681e-01 9.376857e-01 -1.907072e-01
15 1 3 3.096336e+01 2.985638e+00 4.864448e+00 -1 0 0 3.026727e-01 4.188057e-01 8.500059e-01 -1.023768e-01
16 1 4 3.080508e+01 2.672033e+00 4.457879e+00 -1 0 0 3.195280e-01 6.603853e-01 6.795412e-01 -4.101126e-03
17 1 1 3.066425e+01 2.562425e+00 3.951105e+00 -1 0 0 3.051938e-01 8.376837e-01 4.429510e-01 9.453658e-02
18 1 2 3.065781e+01 2.635135e+00 3.418775e+00 -1 0 0 2.612049e-01 9.334167e-01 1.632232e-01 1.840199e-01
19 1 3 3.085178e+01 2.799200e+00 2.945347e+00 -1 0 0 1.917310e-01 9.383021e-01 -1.323458e-01 2.555642e-01
20 1 1 3.123590e+01 2.929004e+00 2.592792e+00 -1 0 0 1.037478e-01 8.518025e-01 -4.150964e-01 3.022645e-01
21 1 3 3.172773e+01 2.911931e+00 2.377236e+00 -1 0 0 5.539324e-03 6.824521e-01 -6.573811e-01 3.194973e-01
22 1 1 2.039949e-01 2.691087e+00 2.262728e+00 0 0 0 9.311568e-02 -4.466221e-01 8.357396e-01 -3.056099e-01
23 1 1 5.471925e-01 2.287103e+00 2.174955e+00 0 0 0 1.828488e-01 -1.673365e-01 9.326981e-01 -2.619907e-01
24 1 3 6.904542e-01 1.790144e+00 2.029445e+00 0 0 0 2.547515e-01 1.282990e-01 9.388259e-01 -1.929948e-01
25 1 3 6.428154e-01 1.325677e+00 1.763537e+00 0 0 0 3.018137e-01 4.113889e-01 8.536048e-01 -1.050072e-01
26 1 3 4.859547e-01 1.006837e+00 1.360507e+00 0 0 0 3.194694e-01 6.544295e-01 6.852839e-01 -6.877651e-03
27 1 2 3.428976e-01 8.914592e-01 8.556198e-01 0 0 0 3.060670e-01 8.337462e-01 4.502557e-01 9.197852e-02
28 1 1 5.330136e-01 8.700300e-02 7.867051e-02 0 0 0 -6.577777e-02 -2.596314e-01 9.615045e-01 -6.143289e-02
29 1 1 5.769516e-01 3.166997e+01 3.174275e+01 0 -1 -1 -4.369296e-02 4.933315e-02 9.947164e-01 -7.871746e-02
30 1 1 5.715540e-01 3.072664e+01 3.111114e+01 0 -1 -1 4.914225e-01 7.670500e-01 2.378357e-01 -3.370051e-01
31 1 1 2.914573e-01 3.051623e+01 3.070378e+01 0 -1 -1 5.713636e-01 8.030093e-01 -1.010301e-02 -1.691673e-01
32 1 1 2.261602e-01 3.025807e+01 3.023713e+01 0 -1 -1 5.956843e-01 7.608108e-01 -2.570939e-01 1.515936e-02
33 1 4 3.586301e-01 2.991485e+01 2.984552e+01 0 -1 -1 5.620242e-01 6.445329e-01 -4.790618e-01 1.980048e-01
34 1 1 5.965530e-01 2.948159e+01 2.963487e+01 0 -1 -1 -4.736343e-01 -4.655421e-01 6.543741e-01 -3.615738e-01
35 1 3 8.075704e-01 2.898754e+01 2.964220e+01 0 -1 -1 -3.391774e-01 -2.412225e-01 7.659920e-01 -4.899251e-01
36 1 4 8.696356e-01 2.848499e+01 2.982191e+01 0 -1 -1 -1.716783e-01 6.583335e-03 8.030493e-01 -5.706094e-01
37 1 3 7.171751e-01 2.802951e+01 3.006274e+01 0 -1 -1 1.252685e-02 2.537513e-01 7.619501e-01 -5.957226e-01
38 1 3 3.661994e-01 2.765879e+01 3.023029e+01 0 -1 -1 1.955622e-01 4.762637e-01 6.465909e-01 -5.628930e-01
39 1 3 3.190811e+01 2.737829e+01 3.021791e+01 -1 -1 -1 3.595052e-01 6.523454e-01 4.683983e-01 -4.751890e-01
40 1 2 3.147501e+01 2.715917e+01 2.998752e+01 -1 -1 -1 4.884663e-01 7.649309e-01 2.445582e-01 -3.412809e-01
41 1 3 3.118943e+01 2.694937e+01 2.958366e+01 -1 -1 -1 5.698443e-01 8.030743e-01 -3.068456e-03 -1.741830e-01
42 1 3 3.111804e+01 2.669317e+01 2.911680e+01 -1 -1 -1 5.957858e-01 7.630413e-01 -2.504168e-01 9.929966e-03
43 1 4 3.124592e+01 2.635255e+01 2.872144e+01 -1 -1 -1 5.637164e-01 6.487196e-01 -4.733990e-01 1.930806e-01
44 1 1 3.148265e+01 2.592155e+01 2.850479e+01 -1 -1 -1 -4.767771e-01 -4.712032e-01 6.503077e-01 -3.574228e-01
45 1 4 3.169623e+01 2.542854e+01 2.850639e+01 -1 -1 -1 -3.433894e-01 -2.478760e-01 7.638651e-01 -4.869818e-01
46 1 2 3.176365e+01 2.492545e+01 2.868257e+01 -1 -1 -1 -1.766283e-01 -4.116261e-04 8.030809e-01 -5.690899e-01
47 1 1 3.161733e+01 2.446805e+01 2.892348e+01 -1 -1 -1 7.348479e-03 2.471097e-01 7.641101e-01 -5.958343e-01
48 1 4 3.127100e+01 2.409471e+01 2.909477e+01 -1 -1 -1 1.906320e-01 4.705549e-01 6.507510e-01 -5.645889e-01
49 1 2 3.081416e+01 2.381193e+01 2.908832e+01 -1 -1 -1 3.553402e-01 6.482126e-01 4.740913e-01 -4.783212e-01
50 2 3 9.765270e+00 6.259562e+00 2.445086e+01 0 0 -1 8.059566e-01 1.106997e-01 -4.778978e-01 3.313506e-01
51 2 2 9.755778e+00 5.849432e+00 2.479777e+01 0 0 -1 6.645494e-01 -4.181225e-02 -4.887662e-01 5.636785e-01
52 2 4 9.720406e+00 5.619397e+00 2.528206e+01 0 0 -1 4.584856e-01 -1.905047e-01 -4.520944e-01 7.410192e-01
53 2 1 9.569474e+00 5.583502e+00 2.579648e+01 0 0 -1 2.077886e-01 -3.205741e-01 -3.714150e-01 8.462311e-01
54 2 3 9.257176e+00 5.682074e+00 2.622242e+01 0 0 -1 -6.308966e-02 -4.193669e-01 -2.544729e-01 8.691344e-01
55 2 2 8.798850e+00 5.804283e+00 2.647483e+01 0 0 -1 -3.279189e-01 -4.774140e-01 -1.129102e-01 8.073390e-01
56 2 1 8.265513e+00 5.830365e+00 2.653469e+01 0 0 -1 5.607661e-01 4.889408e-01 -3.976299e-02 -6.670062e-01
57 2 3 7.756601e+00 5.677070e+00 2.645598e+01 0 0 -1 7.390395e-01 4.528967e-01 -1.885229e-01 -4.616972e-01
58 2 2 7.362251e+00 5.329305e+00 2.634552e+01 0 0 -1 8.453654e-01 3.727220e-01 -3.188942e-01 -2.115232e-01
59 2 1 7.129051e+00 4.845804e+00 2.632192e+01 0 0 -1 8.693572e-01 2.563464e-01 -4.183076e-01 5.935797e-02
60 2 4 7.042505e+00 4.336953e+00 2.647111e+01 0 0 -1 8.087722e-01 1.149521e-01 -4.769212e-01 3.243759e-01
61 2 1 7.032192e+00 3.922710e+00 2.681313e+01 0 0 -1 6.694362e-01 -3.760613e-02 -4.891360e-01 5.578412e-01
62 2 3 6.998918e+00 3.687117e+00 2.729487e+01 0 0 -1 4.649258e-01 -1.865206e-01 -4.537225e-01 7.370142e-01
63 2 4 6.852087e+00 3.646323e+00 2.781012e+01 0 0 -1 2.151654e-01 -3.172908e-01 -3.741112e-01 8.444354e-01
64 2 3 6.544334e+00 3.742477e+00 2.823992e+01 0 0 -1 -5.551833e-02 -4.171534e-01 -2.581859e-01 8.696210e-01
65 2 3 6.089342e+00 3.865719e+00 2.849776e+01 0 0 -1 -3.208433e-01 -4.764290e-01 -1.170329e-01 8.101718e-01
66 2 4 5.556815e+00 3.895886e+00 2.856259e+01 0 0 -1 5.549324e-01 4.892762e-01 -3.543975e-02 -6.718652e-01
67 2 2 5.045857e+00 3.748156e+00 2.848648e+01 0 0 -1 7.349954e-01 4.545038e-01 -1.844904e-01 -4.681574e-01
68 2 2 4.647386e+00 3.405307e+00 2.837516e+01 0 0 -1 8.435093e-01 3.754793e-01 -3.155864e-01 -2.188894e-01
69 2 3 4.409683e+00 2.924270e+00 2.834781e+01 0 0 -1 8.698483e-01 2.599900e-01 -4.160423e-01 5.174884e-02
70 2 4 4.319740e+00 2.414430e+00 2.849153e+01 0 0 -1 8.115564e-01 1.191289e-01 -4.759155e-01 3.173153e-01
71 2 2 4.308616e+00 1.996147e+00 2.882856e+01 0 0 -1 6.742916e-01 -3.329406e-02 -4.894301e-01 5.519788e-01
72 2 1 4.277286e+00 1.754991e+00 2.930772e+01 0 0 -1 4.713735e-01 -1.826034e-01 -4.553686e-01 7.328728e-01
73 2 1 4.134578e+00 1.709244e+00 2.982367e+01 0 0 -1 2.225523e-01 -3.140052e-01 -3.769061e-01 8.425040e-01
74 2 2 3.831407e+00 1.802923e+00 3.025725e+01 0 0 -1 -4.793480e-02 -4.148862e-01 -2.617328e-01 8.700963e-01
75 2 4 3.379780e+00 1.927092e+00 3.052053e+01 0 0 -1 -3.137795e-01 -4.753581e-01 -1.212015e-01 8.129497e-01
76 2 2 2.848130e+00 1.961248e+00 3.059030e+01 0 0 -1 5.490370e-01 4.895823e-01 -3.128114e-02 -6.766750e-01
77 2 1 2.078026e+00 1.791454e+00 3.140580e+01 0 0 -1 5.450130e-01 -3.763674e-01 -5.519683e-01 5.065959e-01
78 2 1 1.729063e+00 1.772077e+00 3.181388e+01 0 0 -1 -3.623892e-01 5.280863e-01 4.090643e-01 -6.499733e-01
79 2 3 1.036095e+00 1.859939e+00 7.088177e-01 0 0 0 -4.502206e-01 -9.189366e-02 3.060164e-01 8.337931e-01
80 2 2 5.587751e-01 2.077885e+00 8.242881e-01 0 0 0 6.852800e-01 -6.918980e-03 -3.194321e-01 -6.544514e-01
81 2 2 6.757189e-02 2.092405e+00 1.041608e+00 0 0 0 8.536116e-01 -1.050788e-01 -3.017034e-01 -4.114373e-01
82 2 2 3.168570e+01 1.961221e+00 1.396033e+00 -1 0 0 9.388457e-01 -1.929181e-01 -2.547511e-01 -1.282704e-01
83 2 4 3.149467e+01 1.797581e+00 1.870835e+00 -1 0 0 9.326800e-01 -2.620466e-01 -1.828625e-01 1.673346e-01
84 2 4 3.150356e+01 1.726925e+00 2.403378e+00 -1 0 0 8.357309e-01 -3.056161e-01 -9.323471e-02 4.466094e-01
85 2 2 3.164552e+01 1.839405e+00 2.909189e+00 -1 0 0 6.574295e-01 -3.194083e-01 5.508646e-03 6.824474e-01
86 2 4 3.180308e+01 2.155653e+00 3.313998e+00 -1 0 0 4.150716e-01 -3.023047e-01 1.036700e-01 8.518098e-01
87 2 2 3.185293e+01 2.618772e+00 3.581811e+00 -1 0 0 1.323825e-01 -2.555730e-01 1.918195e-01 9.382764e-01
88 2 3 3.171261e+01 3.116178e+00 3.728683e+00 -1 0 0 -1.632382e-01 -1.840178e-01 2.612467e-01 9.334029e-01
89 2 4 3.137190e+01 3.522181e+00 3.816718e+00 -1 0 0 -4.429444e-01 -9.456019e-02 3.052459e-01 8.376656e-01
90 2 1 3.089677e+01 3.745909e+00 3.930264e+00 -1 0 0 6.795424e-01 -4.096502e-03 -3.195439e-01 -6.603764e-01
91 2 2 3.040419e+01 3.765627e+00 4.144007e+00 -1 0 0 8.500092e-01 -1.023620e-01 -3.026847e-01 -4.187939e-01
92 2 3 3.001790e+01 3.637143e+00 4.494621e+00 -1 0 0 9.377021e-01 -1.905993e-01 -2.564635e-01 -1.364297e-01
93 2 3 2.982105e+01 3.472658e+00 4.966721e+00 -1 0 0 9.341151e-01 -2.603446e-01 -1.852115e-01 1.592054e-01
94 2 3 2.982496e+01 3.397922e+00 5.498764e+00 -1 0 0 8.396357e-01 -3.046953e-01 -9.592341e-02 4.392852e-01
95 2 4 2.996466e+01 3.504669e+00 6.006479e+00 -1 0 0 6.633830e-01 -3.194922e-01 2.700683e-03 6.766390e-01
96 2 1 3.012357e+01 3.815650e+00 6.414797e+00 -1 0 0 4.225410e-01 -3.030903e-01 1.011002e-01 8.481593e-01
97 2 3 3.017779e+01 4.276066e+00 6.686472e+00 -1 0 0 1.405306e-01 -2.572562e-01 1.895721e-01 9.370874e-01
98 2 3 3.004327e+01 4.774236e+00 6.836041e+00 -1 0 0 -1.550673e-01 -1.862693e-01 2.597176e-01 9.347752e-01
99 3 3 2.953679e+01 2.159900e+01 2.790333e+01 -1 -1 -1 8.030564e-01 -5.675165e-01 1.815781e-01 7.403676e-03
100 3 2 2.983034e+01 2.180806e+01 2.830183e+01 -1 -1 -1 7.616468e-01 -4.839708e-01 3.476649e-01 2.545497e-01
101 3 4 3.026718e+01 2.202880e+01 2.852344e+01 -1 -1 -1 6.461605e-01 -3.532521e-01 4.798747e-01 4.768752e-01
102 3 1 3.072333e+01 2.231270e+01 2.852697e+01 -1 -1 -1 4.677652e-01 -1.881886e-01 5.653748e-01 6.527879e-01
103 3 3 3.106740e+01 2.268733e+01 2.835382e+01 -1 -1 -1 2.437231e-01 -4.715493e-03 5.958546e-01 7.652020e-01
104 3 2 3.121060e+01 2.314570e+01 2.811291e+01 -1 -1 -1 -3.885018e-03 1.791002e-01 5.683188e-01 8.030702e-01
105 3 1 3.114050e+01 2.364905e+01 2.793852e+01 -1 -1 -1 -2.512250e-01 3.455571e-01 4.854681e-01 7.627562e-01
106 3 3 3.092569e+01 2.414151e+01 2.793988e+01 -1 -1 -1 -4.740301e-01 4.783096e-01 3.553886e-01 6.482394e-01
107 3 1 3.068964e+01 2.457137e+01 2.815944e+01 -1 -1 -1 6.507562e-01 -5.645713e-01 -1.906115e-01 -4.705771e-01
108 3 4 3.056400e+01 2.491067e+01 2.855664e+01 -1 -1 -1 7.641740e-01 -5.957660e-01 -7.411339e-03 -2.470750e-01
109 3 3 3.063853e+01 2.516593e+01 2.902351e+01 -1 -1 -1 8.030660e-01 -5.691048e-01 1.766484e-01 3.976437e-04
110 3 1 3.092673e+01 2.537547e+01 2.942566e+01 -1 -1 -1 7.638737e-01 -4.869444e-01 3.434224e-01 2.478774e-01
111 3 4 3.136114e+01 2.559510e+01 2.965315e+01 -1 -1 -1 6.502638e-01 -3.574060e-01 4.767957e-01 4.712577e-01
112 3 1 3.181860e+01 2.587675e+01 2.966253e+01 -1 -1 -1 4.733916e-01 -1.930992e-01 5.637178e-01 6.487182e-01
113 3 2 1.672558e-01 2.624877e+01 2.949314e+01 0 -1 -1 2.504850e-01 -9.967283e-03 5.958099e-01 7.629997e-01
114 3 2 3.166441e-01 2.670521e+01 2.925224e+01 0 -1 -1 3.118881e-03 1.741359e-01 5.698814e-01 8.030580e-01
115 3 3 2.518954e-01 2.720805e+01 2.907427e+01 0 -1 -1 -2.445797e-01 3.413097e-01 4.884315e-01 7.649334e-01
116 3 2 3.957096e-02 2.770158e+01 2.906983e+01 0 -1 -1 -4.683794e-01 4.752102e-01 3.594918e-01 6.523509e-01
117 3 2 3.180227e+01 2.813372e+01 2.928342e+01 -1 -1 -1 6.466523e-01 -5.628773e-01 -1.955444e-01 -4.762063e-01
118 3 2 3.167207e+01 2.847563e+01 2.967694e+01 -1 -1 -1 7.619275e-01 -5.957552e-01 -1.252391e-02 -2.537427e-01
119 3 1 3.174045e+01 2.873279e+01 3.014372e+01 -1 -1 -1 8.030452e-01 -5.706146e-01 1.716801e-01 -6.582937e-03
120 3 2 2.328193e-02 2.894290e+01 3.054933e+01 0 -1 -1 7.660011e-01 -4.899392e-01 3.391502e-01 2.412032e-01
121 3 4 4.550883e-01 2.916148e+01 3.078268e+01 0 -1 -1 6.543656e-01 -3.615878e-01 4.736357e-01 4.655417e-01
122 3 1 9.137803e-01 2.944087e+01 3.079794e+01 0 -1 -1 4.790198e-01 -1.979627e-01 5.620249e-01 6.445765e-01
123 3 4 1.266973e+00 2.981031e+01 3.063231e+01 0 -1 -1 2.570597e-01 -1.512604e-02 5.956931e-01 7.608162e-01
124 3 4 1.422516e+00 3.026479e+01 3.039161e+01 0 -1 -1 1.010136e-02 1.691684e-01 5.713615e-01 8.030106e-01
125 3 4 1.363200e+00 3.076703e+01 3.021021e+01 0 -1 -1 -2.378443e-01 3.370008e-01 4.914176e-01 7.670524e-01
126 3 1 1.943279e+00 3.174119e+01 3.017174e+01 0 -1 -1 4.690877e-01 -2.247396e-01 4.716943e-01 7.120065e-01
127 3 1 2.248343e+00 1.775444e-01 3.009963e+01 0 0 -1 2.268575e-01 -6.841176e-02 5.179936e-01 8.219113e-01
128 3 3 2.946795e+00 1.032915e+00 2.983638e+01 0 0 -1 3.116128e-02 6.767126e-01 5.490520e-01 4.895211e-01
129 3 1 2.958390e+00 1.453190e+00 2.950185e+01 0 0 -1 -1.212330e-01 8.129440e-01 3.137874e-01 4.753547e-01
130 3 3 3.050037e+00 1.963485e+00 2.936076e+01 0 0 -1 -2.617483e-01 8.700909e-01 4.789785e-02 4.148920e-01
131 3 4 3.290102e+00 2.443276e+00 2.939002e+01 0 0 -1 -3.768380e-01 8.425146e-01 -2.225576e-01 3.140546e-01
132 3 4 3.690552e+00 2.783626e+00 2.950167e+01 0 0 -1 -4.553288e-01 7.328948e-01 -4.713913e-01 1.825682e-01
133 3 3 4.202493e+00 2.928594e+00 2.957646e+01 0 0 -1 -4.894062e-01 5.519505e-01 -6.743285e-01 3.336463e-02
134 3 1 4.734601e+00 2.896434e+00 2.950918e+01 0 0 -1 4.758475e-01 -3.173232e-01 8.115875e-01 1.191673e-01
135 3 2 5.187870e+00 2.772706e+00 2.924863e+01 0 0 -1 4.160274e-01 -5.173078e-02 8.698703e-01 2.599440e-01
136 3 3 5.493379e+00 2.677776e+00 2.881690e+01 0 0 -1 3.156430e-01 2.187595e-01 8.434515e-01 3.756371e-01
137 3 3 5.638103e+00 2.721033e+00 2.830130e+01 0 0 -1 1.845729e-01 4.681815e-01 7.349745e-01 4.544792e-01
138 3 1 5.670394e+00 2.959421e+00 2.782088e+01 0 0 -1 3.546202e-02 6.718956e-01 5.549480e-01 4.892151e-01
139 3 2 5.681097e+00 3.375691e+00 2.748130e+01 0 0 -1 -1.170211e-01 8.102011e-01 3.207931e-01 4.764158e-01
140 3 2 5.769360e+00 3.885035e+00 2.733483e+01 0 0 -1 -2.581065e-01 8.696440e-01 5.550586e-02 4.171565e-01
141 3 1 6.004839e+00 4.367321e+00 2.736031e+01 0 0 -1 -3.741288e-01 8.444110e-01 -2.152238e-01 3.172954e-01
142 3 2 6.401248e+00 4.712649e+00 2.747124e+01 0 0 -1 -4.537253e-01 7.369719e-01 -4.649919e-01 1.865163e-01
143 3 4 6.911158e+00 4.863140e+00 2.754864e+01 0 0 -1 -4.891789e-01 5.578127e-01 -6.694263e-01 3.764984e-02
144 3 1 7.444093e+00 4.835015e+00 2.748634e+01 0 0 -1 4.769312e-01 -3.243596e-01 8.087750e-01 1.149366e-01
145 3 4 7.900729e+00 4.712280e+00 2.723117e+01 0 0 -1 4.183046e-01 -5.935531e-02 8.693682e-01 2.563145e-01
146 3 3 8.210793e+00 4.614892e+00 2.680334e+01 0 0 -1 3.189443e-01 2.115275e-01 8.453758e-01 3.726532e-01
147 3 2 8.359685e+00 4.653239e+00 2.628849e+01 0 0 -1 1.885525e-01 4.616681e-01 7.390132e-01 4.529569e-01
