# LAMMPS data file
150 atoms
150 ellipsoids
147 bonds

4 atom types
1 bond types

# System size
0.000000 36.000000 xlo xhi
0.000000 36.000000 ylo yhi
0.000000 36.000000 zlo zhi

Masses

1 3.1575
2 3.1575
3 3.1575
4 3.1575

# Atom-ID, type, position, molecule-ID, ellipsoid flag, density
Atoms

1 3  3.723117709159851e-01  4.791350364685059e+00  1.174729251861572e+01 1 1 1
2 2  7.091568708419800e-01  4.379739284515381e+00  1.167117214202881e+01 1 1 1
3 4  8.479845523834229e-01  3.882892847061157e+00  1.152106571197510e+01 1 1 1
4 1  8.057185411453247e-01  3.427648782730103e+00  1.123888206481934e+01 1 1 1
5 3  6.680755019187927e-01  3.125032424926758e+00  1.081677818298340e+01 1 1 1
6 2  5.570574998855591e-01  3.028092145919800e+00  1.030003738403320e+01 1 1 1
7 1  5.844865441322327e-01  3.111742973327637e+00  9.770034790039062e+00 1 1 1
8 2  8.096222281455994e-01  3.282300949096680e+00  9.312938690185547e+00 1 1 1
9 2  1.216612458229065e+00  3.412997484207153e+00  8.987445831298828e+00 1 1 1
10 4  1.720522999763489e+00  3.392271995544434e+00  8.802142143249512e+00 1 1 1
11 1  2.199545383453369e+00  3.166126012802124e+00  8.712340354919434e+00 1 1 1
12 2  2.541390895843506e+00  2.758470535278320e+00  8.637108802795410e+00 1 1 1
13 2  2.685866355895996e+00  2.262305974960327e+00  8.489995002746582e+00 1 1 1
14 2  2.647739887237549e+00  1.804226994514465e+00  8.211806297302246e+00 1 1 1
15 3  2.511192798614502e+00  1.496274948120117e+00  7.793279647827148e+00 1 1 1
16 4  2.397741317749023e+00  1.393591403961182e+00  7.278225421905518e+00 1 1 1
17 1  2.420218706130981e+00  1.473215937614441e+00  6.747354030609131e+00 1 1 1
18 2  2.639696121215820e+00  1.643013954162598e+00  6.287203311920166e+00 1 1 1
19 3  3.042517185211182e+00  1.776495337486267e+00  5.957678318023682e+00 1 1 1
20 1  3.545287370681763e+00  1.761078238487244e+00  5.768783569335938e+00 1 1 1
21 3  4.026659965515137e+00  1.540728449821472e+00  5.677282810211182e+00 1 1 1
22 1  4.373477935791016e+00  1.137129306793213e+00  5.602869987487793e+00 1 1 1
23 1  4.523613452911377e+00  6.417574882507324e-01  5.458739757537842e+00 1 1 1
24 3  4.489708900451660e+00  1.808999776840210e-01  5.184724807739258e+00 1 1 1
25 3  4.354310989379883e+00 -1.322802603244781e-01  4.769633293151855e+00 1 1 1
26 3  4.238575458526611e+00 -2.407832294702530e-01  4.256274700164795e+00 1 1 1
27 2  4.256098747253418e+00 -1.652474105358124e-01  3.724593639373779e+00 1 1 1
28 1  4.633168220520020e+00 -8.907986879348755e-01  2.925015687942505e+00 1 1 1
29 1  4.808852672576904e+00 -1.297562122344971e+00  2.621094226837158e+00 1 1 1
30 1  4.764913558959961e+00 -1.757603049278259e+00  2.347023010253906e+00 1 1 1
31 1  4.639179706573486e+00 -2.818153858184814e+00  1.987121939659119e+00 1 1 1
32 1  4.420717239379883e+00 -3.049010038375854e+00  1.553893446922302e+00 1 1 1
33 1  4.418965339660645e+00 -3.349304676055908e+00  1.108381152153015e+00 1 1 1
34 4  4.589076042175293e+00 -3.740612268447876e+00  7.818539738655090e-01 1 1 1
35 1  4.820741653442383e+00 -4.209971904754639e+00  6.604720354080200e-01 1 1 1
36 3  4.980321884155273e+00 -4.714709758758545e+00  7.523210644721985e-01 1 1 1
37 4  4.961606979370117e+00 -5.198772430419922e+00  9.847748875617981e-01 1 1 1
38 3  4.726058959960938e+00 -5.613914489746094e+00  1.231518030166626e+00 1 1 1
39 3  4.317560672760010e+00 -5.938085556030273e+00  1.360829591751099e+00 1 1 1
40 3  3.845712661743164e+00 -6.183829307556152e+00  1.285664081573486e+00 1 1 1
41 2  3.444127321243286e+00 -6.393449306488037e+00  9.968014359474182e-01 1 1 1
42 3  3.219719171524048e+00 -6.622961044311523e+00  5.659545063972473e-01 1 1 1
43 3  3.212218046188354e+00 -6.920861244201660e+00  1.188240274786949e-01 1 1 1
44 4  3.378766536712646e+00 -7.309660911560059e+00 -2.124908119440079e-01 1 1 1
45 1  3.610570430755615e+00 -7.777306079864502e+00 -3.401949703693390e-01 1 1 1
46 4  3.773822069168091e+00 -8.281816482543945e+00 -2.534779310226440e-01 1 1 1
47 2  3.760952472686768e+00 -8.767192840576172e+00 -2.338648401200771e-02 1 1 1
48 1  3.531202793121338e+00 -9.184674263000488e+00  2.247163206338882e-01 1 1 1
49 4  3.126327753067017e+00 -9.511405944824219e+00  3.588718771934509e-01 1 1 1
50 2  2.654394149780273e+00 -9.758861541748047e+00  2.899009883403778e-01 1 1 1
51 3  9.990848541259766e+00  6.003711223602295e+00 -6.848619461059570e+00 2 1 1
52 2  1.020991897583008e+01  5.661906719207764e+00 -6.496762275695801e+00 2 1 1
53 4  1.038421916961670e+01  5.501627922058105e+00 -6.014422416687012e+00 2 1 1
54 1  1.039882850646973e+01  5.494533061981201e+00 -5.477352142333984e+00 2 1 1
55 3  1.019947242736816e+01  5.554020881652832e+00 -4.982017517089844e+00 2 1 1
56 2  9.813105583190918e+00  5.568197250366211e+00 -4.608871459960938e+00 2 1 1
57 1  9.337784767150879e+00  5.442398071289062e+00 -4.392180442810059e+00 2 1 1
58 3  8.905411720275879e+00  5.135159015655518e+00 -4.306601524353027e+00 2 1 1
59 2  8.631475448608398e+00  4.673921585083008e+00 -4.277016162872314e+00 2 1 1
60 1  8.571267127990723e+00  4.144573688507080e+00 -4.207104206085205e+00 2 1 1
61 4  8.699041366577148e+00  3.659037351608276e+00 -4.015804767608643e+00 2 1 1
62 1  8.917398452758789e+00  3.312418222427368e+00 -3.668135643005371e+00 2 1 1
63 3  9.094703674316406e+00  3.147166252136230e+00 -3.188615322113037e+00 2 1 1
64 4  9.114839553833008e+00  3.136754751205444e+00 -2.651782751083374e+00 2 1 1
65 3  8.921439170837402e+00  3.195874214172363e+00 -2.154040813446045e+00 2 1 1
66 3  8.539205551147461e+00  3.212764739990234e+00 -1.776798367500305e+00 2 1 1
67 4  8.064658164978027e+00  3.091762065887451e+00 -1.555732965469360e+00 2 1 1
68 2  7.629304409027100e+00  2.789520263671875e+00 -1.467336773872375e+00 2 1 1
69 2  7.349803447723389e+00  2.331582784652710e+00 -1.437577605247498e+00 2 1 1
70 3  7.283675670623779e+00  1.802700638771057e+00 -1.370020151138306e+00 2 1 1
71 4  7.407220840454102e+00  1.314455509185791e+00 -1.182790994644165e+00 2 1 1
72 2  7.624791622161865e+00  9.630883336067200e-01 -8.395079970359802e-01 2 1 1
73 1  7.804971694946289e+00  7.928071022033691e-01 -3.627856373786926e-01 2 1 1
74 1  7.830652236938477e+00  7.790444493293762e-01  1.737011522054672e-01 2 1 1
75 2  7.643248081207275e+00  8.377059698104858e-01  6.738479137420654e-01 2 1 1
76 4  7.265222549438477e+00  8.572346568107605e-01  1.055168271064758e+00 2 1 1
77 2  6.791508197784424e+00  7.409515976905823e-01  1.280486106872559e+00 2 1 1
78 1  6.415395736694336e+00  2.643001675605774e-01  2.230076074600220e+00 2 1 1
79 1  6.244976520538330e+00  1.228371262550354e-01  2.719600915908813e+00 2 1 1
80 1  5.921749591827393e+00  1.392778158187866e-01  3.148482322692871e+00 2 1 1
81 3  5.289459705352783e+00  3.264085948467255e-01  4.085771083831787e+00 2 1 1
82 2  4.940210819244385e+00  7.279193997383118e-01  4.159846782684326e+00 2 1 1
83 2  4.457652568817139e+00  9.454616308212280e-01  4.252172946929932e+00 2 1 1
84 2  3.955501317977905e+00  9.582096338272095e-01  4.442798614501953e+00 2 1 1
85 4  3.554798841476440e+00  8.233414292335510e-01  4.774409770965576e+00 2 1 1
86 4  3.338137149810791e+00  6.539747714996338e-01  5.235972881317139e+00 2 1 1
87 2  3.318151712417603e+00  5.763676166534424e-01  5.767192363739014e+00 2 1 1
88 4  3.432739734649658e+00  6.819955706596375e-01  6.281457901000977e+00 2 1 1
89 2  3.568724393844604e+00  9.925433993339539e-01  6.698268413543701e+00 2 1 1
90 3  3.604764223098755e+00  1.452033281326294e+00  6.974428653717041e+00 2 1 1
91 4  3.457448005676270e+00  1.947776913642883e+00  7.119988918304443e+00 2 1 1
92 1  3.113123655319214e+00  2.353412628173828e+00  7.194806098937988e+00 2 1 1
93 2  2.632888078689575e+00  2.576737880706787e+00  7.285441398620605e+00 2 1 1
94 3  2.129567623138428e+00  2.594728946685791e+00  7.472502231597900e+00 2 1 1
95 3  1.724658131599426e+00  2.462628602981567e+00  7.800076007843018e+00 2 1 1
96 3  1.502333879470825e+00  2.292456865310669e+00  8.258605003356934e+00 2 1 1
97 4  1.477392792701721e+00  2.210818529129028e+00  8.789139747619629e+00 2 1 1
98 1  1.589634418487549e+00  2.310626029968262e+00  9.304965972900391e+00 2 1 1
99 3  1.726723670959473e+00  2.615933895111084e+00  9.725348472595215e+00 2 1 1
100 3  1.766939043998718e+00  3.072605609893799e+00  1.000549125671387e+01 2 1 1
101 3  1.418611884117126e+00 -1.198399448394775e+01 -9.161549210548401e-01 3 1 1
102 2  1.651741266250610e+00 -1.175639629364014e+01 -4.889366030693054e-01 3 1 1
103 4  2.058741569519043e+00 -1.154637527465820e+01 -2.080413699150085e-01 3 1 1
104 1  2.530651330947876e+00 -1.129804611206055e+01 -1.421907991170883e-01 3 1 1
105 3  2.933781623840332e+00 -1.097005462646484e+01 -2.786823809146881e-01 3 1 1
106 2  3.160556316375732e+00 -1.055136585235596e+01 -5.274915695190430e-01 3 1 1
107 1  3.170498371124268e+00 -1.006536293029785e+01 -7.563710212707520e-01 3 1 1
108 3  3.005455732345581e+00 -9.560992240905762e+00 -8.403725624084473e-01 3 1 1
109 1  2.773665904998779e+00 -9.094208717346191e+00 -7.096105813980103e-01 3 1 1
110 4  2.608854532241821e+00 -8.706708908081055e+00 -3.758976161479950e-01 3 1 1
111 3  2.619332551956177e+00 -8.409963607788086e+00  7.187867164611816e-02 3 1 1
112 1  2.846609115600586e+00 -8.181087493896484e+00  5.015826225280762e-01 3 1 1
113 4  3.250054597854614e+00 -7.971351146697998e+00  7.878422737121582e-01 3 1 1
114 1  3.721940755844116e+00 -7.724750041961670e+00  8.598194122314453e-01 3 1 1
115 2  4.128630161285400e+00 -7.399300575256348e+00  7.281182408332825e-01 3 1 1
116 2  4.361280441284180e+00 -6.982974529266357e+00  4.806632697582245e-01 3 1 1
117 3  4.377071380615234e+00 -6.498252391815186e+00  2.494214177131653e-01 3 1 1
118 2  4.215624332427979e+00 -5.993635654449463e+00  1.601130366325378e-01 3 1 1
119 2  3.983923435211182e+00 -5.525126934051514e+00  2.846200466156006e-01 3 1 1
120 2  3.815565586090088e+00 -5.135065078735352e+00  6.136038899421692e-01 3 1 1
121 1  3.820220470428467e+00 -4.835991382598877e+00  1.059955358505249e+00 3 1 1
122 2  4.041654109954834e+00 -4.605817317962646e+00  1.491963267326355e+00 3 1 1
123 4  4.441367626190186e+00 -4.396315574645996e+00  1.783545374870300e+00 3 1 1
124 1  4.913176059722900e+00 -4.151415824890137e+00  1.861714601516724e+00 3 1 1
125 4  5.323376178741455e+00 -3.828477144241333e+00  1.734807014465332e+00 3 1 1
126 4  5.561830997467041e+00 -3.414525508880615e+00  1.488900899887085e+00 3 1 1
127 4  5.583508968353271e+00 -2.931141614913940e+00  1.255346775054932e+00 3 1 1
128 1  6.111529827117920e+00 -1.963396191596985e+00  1.441221356391907e+00 3 1 1
129 1  6.396882057189941e+00 -1.508415699005127e+00  1.425734162330627e+00 3 1 1
130 1  6.578779697418213e+00 -1.052545428276062e+00  1.207136392593384e+00 3 1 1
131 3  6.978470802307129e+00 -2.115242332220078e-01  5.749304294586182e-01 3 1 1
132 1  6.761351585388184e+00  1.422120481729507e-01  2.337966114282608e-01 3 1 1
133 3  6.639935016632080e+00  6.317616701126099e-01  4.854568466544151e-02 3 1 1
134 4  6.709110736846924e+00  1.160435676574707e+00 -1.782084628939629e-02 3 1 1
135 4  6.991310596466064e+00  1.616649389266968e+00 -4.777392745018005e-02 3 1 1
136 3  7.428099632263184e+00  1.916382908821106e+00 -1.376217752695084e-01 3 1 1
137 1  7.902252674102783e+00  2.035042762756348e+00 -3.607932329177856e-01 3 1 1
138 2  8.282355308532715e+00  2.016798734664917e+00 -7.400643229484558e-01 3 1 1
139 3  8.472777366638184e+00  1.957906723022461e+00 -1.239077329635620e+00 3 1 1
140 3  8.449848175048828e+00  1.969965696334839e+00 -1.775706410408020e+00 3 1 1
141 1  8.271088600158691e+00  2.137746572494507e+00 -2.253760337829590e+00 3 1 1
142 2  8.053094863891602e+00  2.486734867095947e+00 -2.599321842193604e+00 3 1 1
143 2  7.927459239959717e+00  2.973626613616943e+00 -2.788593769073486e+00 3 1 1
144 1  7.990647792816162e+00  3.502762794494629e+00 -2.857301950454712e+00 3 1 1
145 2  8.267370223999023e+00  3.962375402450562e+00 -2.886966705322266e+00 3 1 1
146 4  8.701219558715820e+00  4.267092704772949e+00 -2.973957777023315e+00 3 1 1
147 1  9.176170349121094e+00  4.390496253967285e+00 -3.192805528640747e+00 3 1 1
148 4  9.560462951660156e+00  4.374955177307129e+00 -3.568000316619873e+00 3 1 1
149 3  9.756856918334961e+00  4.315634250640869e+00 -4.064539432525635e+00 3 1 1
150 2  9.739488601684570e+00  4.324396133422852e+00 -4.601525306701660e+00 3 1 1

# Atom-ID, translational, rotational velocity
Velocities

1  0.000000000000000e+00  0.000000000000000e+00  0.000000000000000e+00  0.000000000000000e+00  0.000000000000000e+00  0.000000000000000e+00
2  0.000000000000000e+00  0.000000000000000e+00  0.000000000000000e+00  0.000000000000000e+00  0.000000000000000e+00  0.000000000000000e+00
3  0.000000000000000e+00  0.000000000000000e+00  0.000000000000000e+00  0.000000000000000e+00  0.000000000000000e+00  0.000000000000000e+00
4  0.000000000000000e+00  0.000000000000000e+00  0.000000000000000e+00  0.000000000000000e+00  0.000000000000000e+00  0.000000000000000e+00
5  0.000000000000000e+00  0.000000000000000e+00  0.000000000000000e+00  0.000000000000000e+00  0.000000000000000e+00  0.000000000000000e+00
6  0.000000000000000e+00  0.000000000000000e+00  0.000000000000000e+00  0.000000000000000e+00  0.000000000000000e+00  0.000000000000000e+00
7  0.000000000000000e+00  0.000000000000000e+00  0.000000000000000e+00  0.000000000000000e+00  0.000000000000000e+00  0.000000000000000e+00
8  0.000000000000000e+00  0.000000000000000e+00  0.000000000000000e+00  0.000000000000000e+00  0.000000000000000e+00  0.000000000000000e+00
9  0.000000000000000e+00  0.000000000000000e+00  0.000000000000000e+00  0.000000000000000e+00  0.000000000000000e+00  0.000000000000000e+00
10  0.000000000000000e+00  0.000000000000000e+00  0.000000000000000e+00  0.000000000000000e+00  0.000000000000000e+00  0.000000000000000e+00
11  0.000000000000000e+00  0.000000000000000e+00  0.000000000000000e+00  0.000000000000000e+00  0.000000000000000e+00  0.000000000000000e+00
12  0.000000000000000e+00  0.000000000000000e+00  0.000000000000000e+00  0.000000000000000e+00  0.000000000000000e+00  0.000000000000000e+00
13  0.000000000000000e+00  0.000000000000000e+00  0.000000000000000e+00  0.000000000000000e+00  0.000000000000000e+00  0.000000000000000e+00
14  0.000000000000000e+00  0.000000000000000e+00  0.000000000000000e+00  0.000000000000000e+00  0.000000000000000e+00  0.000000000000000e+00
15  0.000000000000000e+00  0.000000000000000e+00  0.000000000000000e+00  0.000000000000000e+00  0.000000000000000e+00  0.000000000000000e+00
16  0.000000000000000e+00  0.000000000000000e+00  0.000000000000000e+00  0.000000000000000e+00  0.000000000000000e+00  0.000000000000000e+00
17  0.000000000000000e+00  0.000000000000000e+00  0.000000000000000e+00  0.000000000000000e+00  0.000000000000000e+00  0.000000000000000e+00
18  0.000000000000000e+00  0.000000000000000e+00  0.000000000000000e+00  0.000000000000000e+00  0.000000000000000e+00  0.000000000000000e+00
19  0.000000000000000e+00  0.000000000000000e+00  0.000000000000000e+00  0.000000000000000e+00  0.000000000000000e+00  0.000000000000000e+00
20  0.000000000000000e+00  0.000000000000000e+00  0.000000000000000e+00  0.000000000000000e+00  0.000000000000000e+00  0.000000000000000e+00
21  0.000000000000000e+00  0.000000000000000e+00  0.000000000000000e+00  0.000000000000000e+00  0.000000000000000e+00  0.000000000000000e+00
22  0.000000000000000e+00  0.000000000000000e+00  0.000000000000000e+00  0.000000000000000e+00  0.000000000000000e+00  0.000000000000000e+00
23  0.000000000000000e+00  0.000000000000000e+00  0.000000000000000e+00  0.000000000000000e+00  0.000000000000000e+00  0.000000000000000e+00
24  0.000000000000000e+00  0.000000000000000e+00  0.000000000000000e+00  0.000000000000000e+00  0.000000000000000e+00  0.000000000000000e+00
25  0.000000000000000e+00  0.000000000000000e+00  0.000000000000000e+00  0.000000000000000e+00  0.000000000000000e+00  0.000000000000000e+00
26  0.000000000000000e+00  0.000000000000000e+00  0.000000000000000e+00  0.000000000000000e+00  0.000000000000000e+00  0.000000000000000e+00
27  0.000000000000000e+00  0.000000000000000e+00  0.000000000000000e+00  0.000000000000000e+00  0.000000000000000e+00  0.000000000000000e+00
28  0.000000000000000e+00  0.000000000000000e+00  0.000000000000000e+00  0.000000000000000e+00  0.000000000000000e+00  0.000000000000000e+00
29  0.000000000000000e+00  0.000000000000000e+00  0.000000000000000e+00  0.000000000000000e+00  0.000000000000000e+00  0.000000000000000e+00
30  0.000000000000000e+00  0.000000000000000e+00  0.000000000000000e+00  0.000000000000000e+00  0.000000000000000e+00  0.000000000000000e+00
31  0.000000000000000e+00  0.000000000000000e+00  0.000000000000000e+00  0.000000000000000e+00  0.000000000000000e+00  0.000000000000000e+00
32  0.000000000000000e+00  0.000000000000000e+00  0.000000000000000e+00  0.000000000000000e+00  0.000000000000000e+00  0.000000000000000e+00
33  0.000000000000000e+00  0.000000000000000e+00  0.000000000000000e+00  0.000000000000000e+00  0.000000000000000e+00  0.000000000000000e+00
34  0.000000000000000e+00  0.000000000000000e+00  0.000000000000000e+00  0.000000000000000e+00  0.000000000000000e+00  0.000000000000000e+00
35  0.000000000000000e+00  0.000000000000000e+00  0.000000000000000e+00  0.000000000000000e+00  0.000000000000000e+00  0.000000000000000e+00
36  0.000000000000000e+00  0.000000000000000e+00  0.000000000000000e+00  0.000000000000000e+00  0.000000000000000e+00  0.000000000000000e+00
37  0.000000000000000e+00  0.000000000000000e+00  0.000000000000000e+00  0.000000000000000e+00  0.000000000000000e+00  0.000000000000000e+00
38  0.000000000000000e+00  0.000000000000000e+00  0.000000000000000e+00  0.000000000000000e+00  0.000000000000000e+00  0.000000000000000e+00
39  0.000000000000000e+00  0.000000000000000e+00  0.000000000000000e+00  0.000000000000000e+00  0.000000000000000e+00  0.000000000000000e+00
40  0.000000000000000e+00  0.000000000000000e+00  0.000000000000000e+00  0.000000000000000e+00  0.000000000000000e+00  0.000000000000000e+00
41  0.000000000000000e+00  0.000000000000000e+00  0.000000000000000e+00  0.000000000000000e+00  0.000000000000000e+00  0.000000000000000e+00
42  0.000000000000000e+00  0.000000000000000e+00  0.000000000000000e+00  0.000000000000000e+00  0.000000000000000e+00  0.000000000000000e+00
43  0.000000000000000e+00  0.000000000000000e+00  0.000000000000000e+00  0.000000000000000e+00  0.000000000000000e+00  0.000000000000000e+00
44  0.000000000000000e+00  0.000000000000000e+00  0.000000000000000e+00  0.000000000000000e+00  0.000000000000000e+00  0.000000000000000e+00
45  0.000000000000000e+00  0.000000000000000e+00  0.000000000000000e+00  0.000000000000000e+00  0.000000000000000e+00  0.000000000000000e+00
46  0.000000000000000e+00  0.000000000000000e+00  0.000000000000000e+00  0.000000000000000e+00  0.000000000000000e+00  0.000000000000000e+00
47  0.000000000000000e+00  0.000000000000000e+00  0.000000000000000e+00  0.000000000000000e+00  0.000000000000000e+00  0.000000000000000e+00
48  0.000000000000000e+00  0.000000000000000e+00  0.000000000000000e+00  0.000000000000000e+00  0.000000000000000e+00  0.000000000000000e+00
49  0.000000000000000e+00  0.000000000000000e+00  0.000000000000000e+00  0.000000000000000e+00  0.000000000000000e+00  0.000000000000000e+00
50  0.000000000000000e+00  0.000000000000000e+00  0.000000000000000e+00  0.000000000000000e+00  0.000000000000000e+00  0.000000000000000e+00
51  0.000000000000000e+00  0.000000000000000e+00  0.000000000000000e+00  0.000000000000000e+00  0.000000000000000e+00  0.000000000000000e+00
52  0.000000000000000e+00  0.000000000000000e+00  0.000000000000000e+00  0.000000000000000e+00  0.000000000000000e+00  0.000000000000000e+00
53  0.000000000000000e+00  0.000000000000000e+00  0.000000000000000e+00  0.000000000000000e+00  0.000000000000000e+00  0.000000000000000e+00
54  0.000000000000000e+00  0.000000000000000e+00  0.000000000000000e+00  0.000000000000000e+00  0.000000000000000e+00  0.000000000000000e+00
55  0.000000000000000e+00  0.000000000000000e+00  0.000000000000000e+00  0.000000000000000e+00  0.000000000000000e+00  0.000000000000000e+00
56  0.000000000000000e+00  0.000000000000000e+00  0.000000000000000e+00  0.000000000000000e+00  0.000000000000000e+00  0.000000000000000e+00
57  0.000000000000000e+00  0.000000000000000e+00  0.000000000000000e+00  0.000000000000000e+00  0.000000000000000e+00  0.000000000000000e+00
58  0.000000000000000e+00  0.000000000000000e+00  0.000000000000000e+00  0.000000000000000e+00  0.000000000000000e+00  0.000000000000000e+00
59  0.000000000000000e+00  0.000000000000000e+00  0.000000000000000e+00  0.000000000000000e+00  0.000000000000000e+00  0.000000000000000e+00
60  0.000000000000000e+00  0.000000000000000e+00  0.000000000000000e+00  0.000000000000000e+00  0.000000000000000e+00  0.000000000000000e+00
61  0.000000000000000e+00  0.000000000000000e+00  0.000000000000000e+00  0.000000000000000e+00  0.000000000000000e+00  0.000000000000000e+00
62  0.000000000000000e+00  0.000000000000000e+00  0.000000000000000e+00  0.000000000000000e+00  0.000000000000000e+00  0.000000000000000e+00
63  0.000000000000000e+00  0.000000000000000e+00  0.000000000000000e+00  0.000000000000000e+00  0.000000000000000e+00  0.000000000000000e+00
64  0.000000000000000e+00  0.000000000000000e+00  0.000000000000000e+00  0.000000000000000e+00  0.000000000000000e+00  0.000000000000000e+00
65  0.000000000000000e+00  0.000000000000000e+00  0.000000000000000e+00  0.000000000000000e+00  0.000000000000000e+00  0.000000000000000e+00
66  0.000000000000000e+00  0.000000000000000e+00  0.000000000000000e+00  0.000000000000000e+00  0.000000000000000e+00  0.000000000000000e+00
67  0.000000000000000e+00  0.000000000000000e+00  0.000000000000000e+00  0.000000000000000e+00  0.000000000000000e+00  0.000000000000000e+00
68  0.000000000000000e+00  0.000000000000000e+00  0.000000000000000e+00  0.000000000000000e+00  0.000000000000000e+00  0.000000000000000e+00
69  0.000000000000000e+00  0.000000000000000e+00  0.000000000000000e+00  0.000000000000000e+00  0.000000000000000e+00  0.000000000000000e+00
70  0.000000000000000e+00  0.000000000000000e+00  0.000000000000000e+00  0.000000000000000e+00  0.000000000000000e+00  0.000000000000000e+00
71  0.000000000000000e+00  0.000000000000000e+00  0.000000000000000e+00  0.000000000000000e+00  0.000000000000000e+00  0.000000000000000e+00
72  0.000000000000000e+00  0.000000000000000e+00  0.000000000000000e+00  0.000000000000000e+00  0.000000000000000e+00  0.000000000000000e+00
73  0.000000000000000e+00  0.000000000000000e+00  0.000000000000000e+00  0.000000000000000e+00  0.000000000000000e+00  0.000000000000000e+00
74  0.000000000000000e+00  0.000000000000000e+00  0.000000000000000e+00  0.000000000000000e+00  0.000000000000000e+00  0.000000000000000e+00
75  0.000000000000000e+00  0.000000000000000e+00  0.000000000000000e+00  0.000000000000000e+00  0.000000000000000e+00  0.000000000000000e+00
76  0.000000000000000e+00  0.000000000000000e+00  0.000000000000000e+00  0.000000000000000e+00  0.000000000000000e+00  0.000000000000000e+00
77  0.000000000000000e+00  0.000000000000000e+00  0.000000000000000e+00  0.000000000000000e+00  0.000000000000000e+00  0.000000000000000e+00
78  0.000000000000000e+00  0.000000000000000e+00  0.000000000000000e+00  0.000000000000000e+00  0.000000000000000e+00  0.000000000000000e+00
79  0.000000000000000e+00  0.000000000000000e+00  0.000000000000000e+00  0.000000000000000e+00  0.000000000000000e+00  0.000000000000000e+00
80  0.000000000000000e+00  0.000000000000000e+00  0.000000000000000e+00  0.000000000000000e+00  0.000000000000000e+00  0.000000000000000e+00
81  0.000000000000000e+00  0.000000000000000e+00  0.000000000000000e+00  0.000000000000000e+00  0.000000000000000e+00  0.000000000000000e+00
82  0.000000000000000e+00  0.000000000000000e+00  0.000000000000000e+00  0.000000000000000e+00  0.000000000000000e+00  0.000000000000000e+00
83  0.000000000000000e+00  0.000000000000000e+00  0.000000000000000e+00  0.000000000000000e+00  0.000000000000000e+00  0.000000000000000e+00
84  0.000000000000000e+00  0.000000000000000e+00  0.000000000000000e+00  0.000000000000000e+00  0.000000000000000e+00  0.000000000000000e+00
85  0.000000000000000e+00  0.000000000000000e+00  0.000000000000000e+00  0.000000000000000e+00  0.000000000000000e+00  0.000000000000000e+00
86  0.000000000000000e+00  0.000000000000000e+00  0.000000000000000e+00  0.000000000000000e+00  0.000000000000000e+00  0.000000000000000e+00
87  0.000000000000000e+00  0.000000000000000e+00  0.000000000000000e+00  0.000000000000000e+00  0.000000000000000e+00  0.000000000000000e+00
88  0.000000000000000e+00  0.000000000000000e+00  0.000000000000000e+00  0.000000000000000e+00  0.000000000000000e+00  0.000000000000000e+00
89  0.000000000000000e+00  0.000000000000000e+00  0.000000000000000e+00  0.000000000000000e+00  0.000000000000000e+00  0.000000000000000e+00
90  0.000000000000000e+00  0.000000000000000e+00  0.000000000000000e+00  0.000000000000000e+00  0.000000000000000e+00  0.000000000000000e+00
91  0.000000000000000e+00  0.000000000000000e+00  0.000000000000000e+00  0.000000000000000e+00  0.000000000000000e+00  0.000000000000000e+00
92  0.000000000000000e+00  0.000000000000000e+00  0.000000000000000e+00  0.000000000000000e+00  0.000000000000000e+00  0.000000000000000e+00
93  0.000000000000000e+00  0.000000000000000e+00  0.000000000000000e+00  0.000000000000000e+00  0.000000000000000e+00  0.000000000000000e+00
94  0.000000000000000e+00  0.000000000000000e+00  0.000000000000000e+00  0.000000000000000e+00  0.000000000000000e+00  0.000000000000000e+00
95  0.000000000000000e+00  0.000000000000000e+00  0.000000000000000e+00  0.000000000000000e+00  0.000000000000000e+00  0.000000000000000e+00
96  0.000000000000000e+00  0.000000000000000e+00  0.000000000000000e+00  0.000000000000000e+00  0.000000000000000e+00  0.000000000000000e+00
97  0.000000000000000e+00  0.000000000000000e+00  0.000000000000000e+00  0.000000000000000e+00  0.000000000000000e+00  0.000000000000000e+00
98  0.000000000000000e+00  0.000000000000000e+00  0.000000000000000e+00  0.000000000000000e+00  0.000000000000000e+00  0.000000000000000e+00
99  0.000000000000000e+00  0.000000000000000e+00  0.000000000000000e+00  0.000000000000000e+00  0.000000000000000e+00  0.000000000000000e+00
100  0.000000000000000e+00  0.000000000000000e+00  0.000000000000000e+00  0.000000000000000e+00  0.000000000000000e+00  0.000000000000000e+00
101  0.000000000000000e+00  0.000000000000000e+00  0.000000000000000e+00  0.000000000000000e+00  0.000000000000000e+00  0.000000000000000e+00
102  0.000000000000000e+00  0.000000000000000e+00  0.000000000000000e+00  0.000000000000000e+00  0.000000000000000e+00  0.000000000000000e+00
103  0.000000000000000e+00  0.000000000000000e+00  0.000000000000000e+00  0.000000000000000e+00  0.000000000000000e+00  0.000000000000000e+00
104  0.000000000000000e+00  0.000000000000000e+00  0.000000000000000e+00  0.000000000000000e+00  0.000000000000000e+00  0.000000000000000e+00
105  0.000000000000000e+00  0.000000000000000e+00  0.000000000000000e+00  0.000000000000000e+00  0.000000000000000e+00  0.000000000000000e+00
106  0.000000000000000e+00  0.000000000000000e+00  0.000000000000000e+00  0.000000000000000e+00  0.000000000000000e+00  0.000000000000000e+00
107  0.000000000000000e+00  0.000000000000000e+00  0.000000000000000e+00  0.000000000000000e+00  0.000000000000000e+00  0.000000000000000e+00
108  0.000000000000000e+00  0.000000000000000e+00  0.000000000000000e+00  0.000000000000000e+00  0.000000000000000e+00  0.000000000000000e+00
109  0.000000000000000e+00  0.000000000000000e+00  0.000000000000000e+00  0.000000000000000e+00  0.000000000000000e+00  0.000000000000000e+00
110  0.000000000000000e+00  0.000000000000000e+00  0.000000000000000e+00  0.000000000000000e+00  0.000000000000000e+00  0.000000000000000e+00
111  0.000000000000000e+00  0.000000000000000e+00  0.000000000000000e+00  0.000000000000000e+00  0.000000000000000e+00  0.000000000000000e+00
112  0.000000000000000e+00  0.000000000000000e+00  0.000000000000000e+00  0.000000000000000e+00  0.000000000000000e+00  0.000000000000000e+00
113  0.000000000000000e+00  0.000000000000000e+00  0.000000000000000e+00  0.000000000000000e+00  0.000000000000000e+00  0.000000000000000e+00
114  0.000000000000000e+00  0.000000000000000e+00  0.000000000000000e+00  0.000000000000000e+00  0.000000000000000e+00  0.000000000000000e+00
115  0.000000000000000e+00  0.000000000000000e+00  0.000000000000000e+00  0.000000000000000e+00  0.000000000000000e+00  0.000000000000000e+00
116  0.000000000000000e+00  0.000000000000000e+00  0.000000000000000e+00  0.000000000000000e+00  0.000000000000000e+00  0.000000000000000e+00
117  0.000000000000000e+00  0.000000000000000e+00  0.000000000000000e+00  0.000000000000000e+00  0.000000000000000e+00  0.000000000000000e+00
118  0.000000000000000e+00  0.000000000000000e+00  0.000000000000000e+00  0.000000000000000e+00  0.000000000000000e+00  0.000000000000000e+00
119  0.000000000000000e+00  0.000000000000000e+00  0.000000000000000e+00  0.000000000000000e+00  0.000000000000000e+00  0.000000000000000e+00
120  0.000000000000000e+00  0.000000000000000e+00  0.000000000000000e+00  0.000000000000000e+00  0.000000000000000e+00  0.000000000000000e+00
121  0.000000000000000e+00  0.000000000000000e+00  0.000000000000000e+00  0.000000000000000e+00  0.000000000000000e+00  0.000000000000000e+00
122  0.000000000000000e+00  0.000000000000000e+00  0.000000000000000e+00  0.000000000000000e+00  0.000000000000000e+00  0.000000000000000e+00
123  0.000000000000000e+00  0.000000000000000e+00  0.000000000000000e+00  0.000000000000000e+00  0.000000000000000e+00  0.000000000000000e+00
124  0.000000000000000e+00  0.000000000000000e+00  0.000000000000000e+00  0.000000000000000e+00  0.000000000000000e+00  0.000000000000000e+00