LAMMPS (29 Sep 2021 - Update 2)
#The sequence-specific interactions can be turned on/off choosing between seqdep/seqav
variable seqspec index seqdep

#Specify the temperature of the system (0.1 in SU is equivalent to 300K)
variable tem equal 0.1


### Salt concentration  ####
############################
#Specify the salt concentration the system (1.0 in SU is equivalent to 1M [NaCl])
variable sc   equal 0.15

#Effective charge in elementary charges
variable qeff equal 0.815


### Stacking parameters ####
############################
#Temperature-independent coefficient in stacking strength
variable xi    equal 1.3523

#Coefficient of linear temperature dependence in stacking strength
variable kappa equal 2.6717


### Hbond parameters ####
#########################
#Energy: 1.0678 (between base pairs A-T and C-G) and 0 (all other pairs)
variable eps equal 1.0678


#5.- The damp parameter. The default value is 0.03. The accelerated value is 1.0
variable tdamp    equal 0.03
variable tdampacc equal 2.5


#6.- The total number of nucleotides in the system
variable N equal 147

variable seed equal 402987

#The times
variable dumpfreq   equal 100000
variable trestart   equal 10000000

#total running time
variable runtime1 equal 1000000000
variable runtime2 equal 200000000



units lj

dimension 3

newton off

boundary  p p p

atom_style hybrid bond ellipsoid oxdna
WARNING: Write_data command requires newton on to preserve 3'->5' bond polarity (../atom_vec_oxdna.cpp:52)
WARNING: Atom style hybrid defines both, per-type and per-atom masses; both must be set, but only per-atom masses will be used (../atom_vec_hybrid.cpp:157)
atom_modify sort 0 1.0

# Pair interactions require lists of neighbours to be calculated
neighbor 2.0 bin
neigh_modify every 1 delay 0 check yes

restart ${trestart} oxDNA.equil.N${N}.Restart
restart 10000000 oxDNA.equil.N${N}.Restart
restart 10000000 oxDNA.equil.N147.Restart
#read_data val3.lammps.txt
read_restart data/oxDNA.equil.N${N}.Restart.20000000
read_restart data/oxDNA.equil.N147.Restart.20000000
Reading restart file ...
  restart file = 29 Sep 2021, LAMMPS = 29 Sep 2021
WARNING: Write_data command requires newton on to preserve 3'->5' bond polarity (../atom_vec_oxdna.cpp:52)
WARNING: Atom style hybrid defines both, per-type and per-atom masses; both must be set, but only per-atom masses will be used (../atom_vec_hybrid.cpp:157)
  restoring atom style hybrid from restart
  orthogonal box = (0.0000000 0.0000000 0.0000000) to (40.000000 40.000000 40.000000)
  1 by 1 by 1 MPI processor grid
  restoring pair style hybrid/overlay from restart
  restoring bond style oxdna2/fene from restart
  241 atoms
  236 bonds
Finding 1-2 1-3 1-4 neighbors ...
  special bond factors lj:    0        1        1       
  special bond factors coul:  0        0        0       
     2 = max # of 1-2 neighbors
     2 = max # of 1-3 neighbors
     4 = max # of 1-4 neighbors
     6 = max # of special neighbors
  special bonds CPU = 0.000 seconds
  read_restart CPU = 0.040 seconds
reset_timestep 0

set atom * mass 3.1575
Setting atom values ...
  241 settings made for mass

#Groups
group all type 1:4
241 atoms in group all


# oxDNA2 bond interactions - FENE backbone
bond_style oxdna2/fene
bond_coeff * 2.0 0.25 0.7564
special_bonds lj 0 1 1

# oxDNA2 pair interactions
pair_style hybrid/overlay oxdna2/excv oxdna2/stk oxdna2/hbond oxdna2/xstk oxdna2/coaxstk oxdna2/dh
pair_coeff * * oxdna2/excv               2.0 0.7 0.675 2.0 0.515 0.5 2.0 0.33 0.32
pair_coeff * * oxdna2/stk     ${seqspec} ${tem} ${xi} ${kappa} 6.0 0.4 0.9 0.32 0.75 1.3 0 0.8 0.9 0 0.95 0.9 0 0.95 2.0 0.65 2.0 0.65
pair_coeff * * oxdna2/stk     seqdep ${tem} ${xi} ${kappa} 6.0 0.4 0.9 0.32 0.75 1.3 0 0.8 0.9 0 0.95 0.9 0 0.95 2.0 0.65 2.0 0.65
pair_coeff * * oxdna2/stk     seqdep 0.1 ${xi} ${kappa} 6.0 0.4 0.9 0.32 0.75 1.3 0 0.8 0.9 0 0.95 0.9 0 0.95 2.0 0.65 2.0 0.65
pair_coeff * * oxdna2/stk     seqdep 0.1 1.3523 ${kappa} 6.0 0.4 0.9 0.32 0.75 1.3 0 0.8 0.9 0 0.95 0.9 0 0.95 2.0 0.65 2.0 0.65
pair_coeff * * oxdna2/stk     seqdep 0.1 1.3523 2.6717 6.0 0.4 0.9 0.32 0.75 1.3 0 0.8 0.9 0 0.95 0.9 0 0.95 2.0 0.65 2.0 0.65
pair_coeff * * oxdna2/hbond   ${seqspec} 0.0 8.0 0.4 0.75 0.34 0.7 1.5 0 0.7 1.5 0 0.7 1.5 0 0.7 0.46 3.141592653589793 0.7 4.0 1.5707963267948966 0.45 4.0 1.5707963267948966 0.45
pair_coeff * * oxdna2/hbond   seqdep 0.0 8.0 0.4 0.75 0.34 0.7 1.5 0 0.7 1.5 0 0.7 1.5 0 0.7 0.46 3.141592653589793 0.7 4.0 1.5707963267948966 0.45 4.0 1.5707963267948966 0.45
pair_coeff 1 4 oxdna2/hbond   ${seqspec} ${eps} 8.0 0.4 0.75 0.34 0.7 1.5 0 0.7 1.5 0 0.7 1.5 0 0.7 0.46 3.141592653589793 0.7 4.0 1.5707963267948966 0.45 4.0 1.5707963267948966 0.45
pair_coeff 1 4 oxdna2/hbond   seqdep ${eps} 8.0 0.4 0.75 0.34 0.7 1.5 0 0.7 1.5 0 0.7 1.5 0 0.7 0.46 3.141592653589793 0.7 4.0 1.5707963267948966 0.45 4.0 1.5707963267948966 0.45
pair_coeff 1 4 oxdna2/hbond   seqdep 1.0678 8.0 0.4 0.75 0.34 0.7 1.5 0 0.7 1.5 0 0.7 1.5 0 0.7 0.46 3.141592653589793 0.7 4.0 1.5707963267948966 0.45 4.0 1.5707963267948966 0.45
pair_coeff 2 3 oxdna2/hbond   ${seqspec} ${eps} 8.0 0.4 0.75 0.34 0.7 1.5 0 0.7 1.5 0 0.7 1.5 0 0.7 0.46 3.141592653589793 0.7 4.0 1.5707963267948966 0.45 4.0 1.5707963267948966 0.45
pair_coeff 2 3 oxdna2/hbond   seqdep ${eps} 8.0 0.4 0.75 0.34 0.7 1.5 0 0.7 1.5 0 0.7 1.5 0 0.7 0.46 3.141592653589793 0.7 4.0 1.5707963267948966 0.45 4.0 1.5707963267948966 0.45
pair_coeff 2 3 oxdna2/hbond   seqdep 1.0678 8.0 0.4 0.75 0.34 0.7 1.5 0 0.7 1.5 0 0.7 1.5 0 0.7 0.46 3.141592653589793 0.7 4.0 1.5707963267948966 0.45 4.0 1.5707963267948966 0.45
pair_coeff * * oxdna2/xstk               47.5 0.575 0.675 0.495 0.655 2.25 0.791592653589793 0.58 1.7 1.0 0.68 1.7 1.0 0.68 1.5 0 0.65 1.7 0.875 0.68 1.7 0.875 0.68
pair_coeff * * oxdna2/coaxstk            58.5 0.4 0.6 0.22 0.58 2.0 2.891592653589793 0.65 1.3 0 0.8 0.9 0 0.95 0.9 0 0.95 40.0 3.116592653589793
pair_coeff * * oxdna2/dh                 ${tem} ${sc} ${qeff}
pair_coeff * * oxdna2/dh                 0.1 ${sc} ${qeff}
pair_coeff * * oxdna2/dh                 0.1 0.15 ${qeff}
pair_coeff * * oxdna2/dh                 0.1 0.15 0.815


# NVE ensemble
fix 1 all nve/asphere
fix 2 all langevin ${tem} ${tem} ${tdamp} ${seed} angmom 10
fix 2 all langevin 0.1 ${tem} ${tdamp} ${seed} angmom 10
fix 2 all langevin 0.1 0.1 ${tdamp} ${seed} angmom 10
fix 2 all langevin 0.1 0.1 0.03 ${seed} angmom 10
fix 2 all langevin 0.1 0.1 0.03 402987 angmom 10
timestep 1e-3


#Useful commands when running in parallel
#comm_style tiled
#fix 3 all balance 10000 1.1 rcb
#comm_modify cutoff 2.65

thermo 10000
thermo_style custom  step  temp

compute erot all erotate/asphere
compute ekin all ke
compute epot all pe
variable erot equal c_erot
variable ekin equal c_ekin
variable epot equal c_epot
variable etot equal c_erot+c_ekin+c_epot
fix 4 all print ${dumpfreq} "$(step)  ekin = ${ekin} |  erot = ${erot} | epot = ${epot} | etot = ${etot}" screen no append energy_total.txt
fix 4 all print 100000 "$(step)  ekin = ${ekin} |  erot = ${erot} | epot = ${epot} | etot = ${etot}" screen no append energy_total.txt

shell mkdir data
WARNING: Shell command 'mkdir' failed with error 'File exists' (../input.cpp:1213)
shell cd data

#compute shape all property/atom shapex shapey shapez
compute quat all property/atom quatw quati quatj quatk

dump out all custom ${dumpfreq} out.data id mol type x y z ix iy iz c_quat[1] c_quat[2] c_quat[3] c_quat[4]
dump out all custom 100000 out.data id mol type x y z ix iy iz c_quat[1] c_quat[2] c_quat[3] c_quat[4]
dump_modify out sort id
dump_modify out format line "%d %d %d %.6le %.6le %.6le %d %d %d %.6le %.6le %.6le %.6le"

run ${runtime1}
run 1000000000
Neighbor list info ...
  update every 1 steps, delay 0 steps, check yes
  max neighbors/atom: 2000, page size: 100000
  master list distance cutoff = 6.2019411
  ghost atom cutoff = 6.2019411
  binsize = 3.1009705, bins = 13 13 13
  5 neighbor lists, perpetual/occasional/extra = 5 0 0
  (1) pair oxdna2/excv, perpetual
      attributes: half, newton off
      pair build: half/bin/newtoff
      stencil: full/bin/3d
      bin: standard
  (2) pair oxdna2/hbond, perpetual, copy from (1)
      attributes: half, newton off
      pair build: copy
      stencil: none
      bin: none
  (3) pair oxdna2/xstk, perpetual, copy from (1)
      attributes: half, newton off
      pair build: copy
      stencil: none
      bin: none
  (4) pair oxdna2/coaxstk, perpetual, copy from (1)
      attributes: half, newton off
      pair build: copy
      stencil: none
      bin: none
  (5) pair oxdna2/dh, perpetual, copy from (1)
      attributes: half, newton off
      pair build: copy
      stencil: none
      bin: none
Per MPI rank memory allocation (min/avg/max) = 9.701 | 9.701 | 9.701 Mbytes
Step Temp 
       0   0.11064862 
   10000   0.10296969 
   20000   0.10321603 
   30000  0.092838454 
   40000   0.09723926 
   50000   0.10359521 
   60000   0.10143802 
   70000  0.094990644 
   80000  0.097432404 
   90000  0.094942368 
  100000   0.10245141 
  110000  0.096939442 
  120000   0.09281689 
  130000   0.09264749 
  140000  0.095959224 
  150000   0.11489764 
  160000   0.10857858 
  170000   0.10189108 
  180000  0.091361497 
  190000  0.098762239 
  200000  0.097779464 
  210000  0.094706737 
  220000   0.09124888 
  230000   0.10290205 
  240000    0.1009138 
  250000  0.094690579 
  260000   0.10104169 
  270000   0.10185577 
  280000  0.099071782 
  290000   0.10312579 
  300000  0.097761263 
  310000  0.098463752 
  320000   0.10788813 
  330000  0.099105128 
  340000  0.095338246 
  350000   0.09936511 
  360000  0.091670033 
  370000   0.10016216 
  380000   0.09546359 
  390000   0.09888402 
  400000  0.098976384 
  410000   0.10936142 
  420000  0.097471656 
  430000  0.094929864 
  440000  0.094596344 
  450000   0.10669432 
  460000  0.099105716 
  470000   0.10769488 
  480000  0.087123283 
  490000   0.10335173 
  500000  0.094303374 
  510000  0.099610085 
  520000   0.10174059 
  530000   0.10479204 
  540000   0.10846422 
  550000   0.10256496 
  560000   0.10553684 
  570000  0.099037814 
  580000   0.10133141 
  590000  0.099993022 
  600000   0.09865646 
  610000   0.10336789 
  620000   0.10609365 
  630000   0.10357438 
  640000  0.097826125 
  650000  0.098150144 
  660000   0.10619821 
  670000  0.092004645 
  680000    0.1052561 
  690000   0.10882546 
  700000    0.1048046 
  710000   0.10940877 
  720000  0.093721101 
  730000   0.10812758 
  740000  0.098770264 
  750000  0.099782837 
  760000   0.10791847 
  770000  0.096969027 
  780000  0.097810217 
  790000   0.10151791 
  800000  0.097823678 
  810000   0.10863003 
  820000   0.10519193 
  830000  0.094634253 
  840000  0.096674806 
  850000  0.097381379 
  860000    0.1004382 
  870000   0.10013354 
  880000   0.10696537 
  890000  0.092684667 
  900000   0.10285853 
  910000   0.10900297 
  920000   0.10569973 
  930000  0.098917128 
  940000  0.099292398 
  950000   0.10264168 
  960000    0.1036997 
  970000   0.10276734 
  980000   0.10551076 
  990000   0.10076736 
 1000000   0.10377066 
 1010000   0.10203704 
 1020000   0.10425365 
 1030000    0.0980819 
 1040000  0.096022789 
 1050000   0.10034256 
 1060000    0.0924992 
 1070000  0.098593075 
 1080000  0.097914085 
 1090000   0.10300717 
 1100000   0.10369002 
 1110000  0.097369681 
 1120000   0.10313261 
 1130000   0.10857377 
 1140000   0.10853979 
 1150000  0.092665656 
 1160000  0.088905618 
 1170000  0.096034298 
 1180000   0.10218396 
 1190000  0.087721058 
 1200000  0.092372388 
 1210000   0.10036811 
 1220000  0.096431204 
 1230000   0.10589594 
 1240000   0.10154995 
 1250000   0.10491773 
 1260000    0.1025225 
 1270000   0.10286425 
 1280000  0.098728742 
 1290000  0.099415822 
 1300000  0.090783309 
 1310000   0.10006382 
 1320000  0.091441337 
 1330000  0.099115995 
 1340000  0.095050821 
 1350000   0.10962554 
 1360000  0.094833381 
 1370000  0.090208735 
 1380000   0.10132086 
 1390000   0.10332866 
 1400000   0.10809452 
 1410000   0.10963116 
 1420000  0.095058277 
 1430000   0.09977551 
 1440000   0.10371334 
 1450000   0.10608045 
 1460000  0.092925727 
 1470000  0.098364483 
 1480000  0.097141203 
 1490000  0.095197319 
 1500000   0.10685808 
 1510000   0.10191971 
 1520000   0.10611917 
 1530000   0.10072146 
 1540000  0.096589756 
 1550000   0.10859395 
 1560000   0.10046396 
 1570000  0.095120883 
 1580000  0.096860394 
 1590000   0.10540084 
 1600000   0.10427373 
 1610000  0.097916177 
 1620000  0.092516873 
 1630000  0.099622562 
 1640000   0.10329739 
 1650000   0.10559993 
 1660000   0.10374014 
 1670000   0.10354978 
 1680000   0.10299258 
 1690000   0.10106387 
 1700000   0.10874899 
 1710000   0.10540328 
 1720000   0.10028478 
 1730000   0.10336073 
 1740000   0.11198668 
 1750000   0.10598328 
 1760000   0.10236422 
 1770000   0.10178123 
 1780000   0.10747154 
 1790000    0.1016121 
 1800000   0.10321966 
 1810000   0.10152699 
 1820000   0.10248851 
 1830000   0.10437383 
 1840000   0.10379853 
 1850000  0.099819854 
 1860000  0.099841364 
 1870000   0.10748097 
 1880000   0.10907873 
 1890000   0.10379643 
 1900000   0.09483986 
 1910000   0.10564848 
 1920000   0.10799672 
 1930000  0.093730976 
 1940000  0.096041326 
 1950000   0.10130001 
 1960000   0.10802805 
 1970000    0.1042232 
 1980000   0.10034012 
 1990000   0.10826625 
 2000000   0.10347533 
 2010000    0.1100312 
 2020000  0.095622882 
 2030000   0.10975067 
 2040000   0.10815012 
 2050000   0.10514112 
 2060000   0.10818725 
 2070000   0.10583717 
 2080000  0.096763521 
 2090000  0.096680456 
 2100000   0.10625397 
 2110000  0.098839276 
 2120000  0.094539135 
 2130000  0.095814392 
 2140000  0.096595862 
 2150000   0.10362605 
 2160000   0.10416138 
 2170000  0.090963695 
 2180000  0.091430599 
 2190000   0.10377797 
 2200000   0.10049313 
 2210000   0.10517617 
 2220000   0.11762675 
 2230000  0.098266389 
 2240000  0.097557316 
 2250000  0.095969771 
 2260000   0.10167304 
 2270000  0.092052515 
 2280000   0.10159658 
 2290000   0.11556662 
 2300000  0.097624732 
 2310000   0.10435172 
 2320000  0.098064157 
 2330000   0.11053267 
 2340000   0.10083168 
 2350000   0.10914991 
 2360000  0.097523875 
 2370000   0.10131269 
 2380000  0.093845926 
 2390000   0.10280746 
 2400000   0.10101898 
 2410000  0.098611553 
 2420000    0.1117045 
 2430000  0.097379868 
 2440000  0.096445061 
 2450000   0.09576686 
 2460000  0.096142011 
 2470000   0.10490442 
 2480000   0.10376482 
 2490000  0.095106428 
 2500000   0.10159913 
 2510000   0.10174223 
 2520000    0.1044993 
 2530000   0.10145266 
 2540000   0.10142461 
 2550000  0.097752572 
 2560000   0.10372049 
 2570000  0.099287162 
 2580000  0.095635214 
 2590000   0.10457331 
 2600000    0.1075819 
 2610000   0.11169421 
 2620000   0.10417892 
 2630000   0.10049727 
 2640000  0.096689268 
 2650000  0.098014921 
 2660000  0.091763168 
 2670000   0.10034332 
 2680000   0.10675072 
 2690000   0.11276266 
 2700000   0.10406557 
 2710000   0.10427498 
 2720000    0.1026288 
 2730000    0.1054802 
 2740000  0.092742439 
 2750000   0.10508799 
 2760000    0.1059852 
 2770000  0.097545054 
 2780000  0.094173805 
 2790000   0.09547777 
 2800000  0.097628327 
 2810000   0.10570938 
 2820000   0.10279015 
 2830000   0.10259341 
 2840000   0.10517679 
 2850000   0.10372007 
 2860000   0.10727786 
 2870000  0.098970749 
 2880000   0.10033577 
 2890000  0.091156952 
 2900000  0.098837176 
 2910000   0.10470458 
 2920000  0.093640318 
 2930000   0.10539368 
 2940000  0.091790504 
 2950000   0.10089283 
 2960000  0.099807471 
 2970000  0.097769011 
 2980000   0.10919428 
 2990000  0.091914768 
 3000000  0.095676678 
 3010000   0.10127623 
 3020000  0.095239652 
 3030000  0.093093902 
 3040000  0.090558001 
 3050000  0.095678664 
 3060000  0.099756929 
 3070000  0.099024274 
 3080000  0.099625304 
 3090000   0.09820404 
 3100000  0.098594376 
 3110000   0.09678202 
 3120000   0.10266249 
 3130000   0.10234445 
 3140000  0.099417643 
 3150000  0.096350635 
 3160000   0.10705353 
 3170000   0.10421275 
 3180000   0.09793258 
 3190000  0.097567369 
 3200000  0.094727458 
 3210000  0.094447252 
 3220000   0.10420649 
 3230000  0.095916644 
 3240000  0.099837013 
 3250000   0.11293836 
 3260000   0.10081456 
 3270000  0.092706555 
 3280000  0.092375479 
 3290000   0.10284405 
 3300000   0.10318705 
 3310000     0.104312 
 3320000   0.09869258 
 3330000   0.10268182 
 3340000   0.10692873 
 3350000  0.094870152 
 3360000   0.10038096 
 3370000    0.1015274 
 3380000    0.1005521 
 3390000   0.10574388 
 3400000   0.09359558 
 3410000  0.099337206 
 3420000   0.11782552 
 3430000  0.089234854 
 3440000  0.097214999 
 3450000  0.098570456 
 3460000   0.10644295 
 3470000   0.10207956 
 3480000  0.094751073 
 3490000   0.10195339 
 3500000  0.099377933 
 3510000   0.10852537 
 3520000  0.094196206 
 3530000   0.10746559 
 3540000   0.10174179 
 3550000    0.1031785 
 3560000   0.10334191 
 3570000  0.088445235 
 3580000  0.097414535 
 3590000   0.10526507 
 3600000   0.10977655 
 3610000  0.096971245 
 3620000   0.09531758 
 3630000  0.098924795 
 3640000  0.098916343 
 3650000  0.094889765 
 3660000  0.099352904 
 3670000  0.091782307 
 3680000    0.1017578 
 3690000   0.10527615 
 3700000   0.10202356 
 3710000  0.094559076 
 3720000  0.094495359 
 3730000  0.099003326 
 3740000  0.099561991 
 3750000  0.099764237 
 3760000   0.10539889 
 3770000  0.094765852 
 3780000   0.10331246 
 3790000  0.092845499 
 3800000   0.10038154 
 3810000  0.095036645 
 3820000   0.10752501 
 3830000   0.10455643 
 3840000  0.094599056 
 3850000   0.10114396 
 3860000  0.096212315 
 3870000   0.10050504 
 3880000   0.09865555 
 3890000   0.10443967 
 3900000  0.092143001 
 3910000  0.099227987 
 3920000  0.093095824 
 3930000   0.10410566 
 3940000   0.10511849 
 3950000  0.094058639 
 3960000   0.10471885 
 3970000   0.09530203 
 3980000  0.097450128 
 3990000   0.10452472 
 4000000   0.10060397 
 4010000   0.10860531 
 4020000  0.099360137 
 4030000   0.09094989 
 4040000   0.10371641 
 4050000  0.099006896 
 4060000  0.094664906 
 4070000   0.11735601 
 4080000  0.097897148 
 4090000   0.11528015 
 4100000  0.094162811 
 4110000  0.096703659 
 4120000    0.1100044 
 4130000   0.10294035 
 4140000   0.10256983 
 4150000  0.097876487 
 4160000   0.09558498 
 4170000  0.099935188 
 4180000  0.099124833 
 4190000   0.11118179 
 4200000  0.098009499 
 4210000  0.096325576 
 4220000   0.10074104 
 4230000   0.10650921 
 4240000   0.10730668 
 4250000   0.10561634 
 4260000  0.097336864 
 4270000   0.11262261 
 4280000   0.10859751 
 4290000  0.097480695 
 4300000   0.10576243 
 4310000  0.098786967 
 4320000  0.099487606 
 4330000    0.1111099 
 4340000  0.098547268 
 4350000    0.1061045 
 4360000  0.087152763 
 4370000  0.099266609 
 4380000   0.10192647 
 4390000   0.10226049 
 4400000   0.10757353 
 4410000   0.10629572 
 4420000  0.093535467 
 4430000   0.10157629 
 4440000  0.099376828 
 4450000   0.09898872 
 4460000   0.10813439 
 4470000   0.11584519 
 4480000   0.10430655 
 4490000  0.095402894 
 4500000    0.1024303 
 4510000   0.10662852 
 4520000   0.10016407 
 4530000   0.10146059 
 4540000   0.10962164 
 4550000  0.096984796 
 4560000  0.098198677 
 4570000  0.099937168 
 4580000   0.10412853 
 4590000     0.104401 
 4600000  0.097444197 
 4610000   0.10548439 
 4620000  0.096656772 
 4630000   0.09079065 
 4640000   0.10638046 
 4650000   0.10597627 
 4660000  0.092034766 
 4670000  0.095770922 
 4680000   0.10191885 
 4690000   0.10016208 
 4700000   0.10515194 
 4710000  0.095542247 
 4720000   0.10212396 
 4730000  0.096904517 
 4740000  0.099419918 
 4750000  0.098974861 
 4760000  0.094986198 
 4770000  0.096716764 
 4780000   0.10267096 
 4790000   0.10306507 
 4800000   0.10866011 
 4810000   0.10163921 
 4820000   0.10251271 
 4830000   0.10149462 
 4840000   0.10280423 
 4850000  0.094647752 
 4860000   0.10095926 
 4870000   0.10018803 
 4880000   0.10359646 
 4890000  0.097701475 
 4900000   0.10052331 
 4910000   0.10267489 
 4920000   0.10281438 
 4930000   0.09471675 
 4940000  0.097726881 
 4950000  0.098062719 
 4960000   0.10520903 
 4970000   0.11197025 
 4980000   0.10343581 
 4990000   0.10387186 
 5000000   0.11240191 
 5010000   0.10493787 
 5020000   0.10475216 
 5030000  0.096457506 
 5040000  0.097021921 
 5050000    0.1073255 
 5060000   0.10849614 
 5070000   0.11027816 
 5080000   0.10298717 
 5090000  0.095987704 
 5100000   0.10019284 
 5110000    0.1014062 
 5120000  0.098480724 
 5130000   0.10471046 
 5140000  0.088286783 
 5150000   0.10368153 
 5160000   0.10165187 
 5170000    0.1047711 
 5180000   0.10398022 
 5190000  0.093282301 
 5200000   0.10511278 
 5210000  0.093020189 
 5220000  0.098760158 
 5230000   0.09913131 
 5240000   0.10358318 
 5250000  0.097612819 
 5260000   0.10260655 
 5270000  0.099420447 
 5280000  0.097797709 
 5290000   0.10214203 
 5300000    0.1017374 
 5310000  0.094500843 
 5320000   0.10077884 
 5330000   0.10083763 
 5340000  0.094863869 
 5350000   0.10550572 
 5360000   0.10457513 
 5370000   0.10710452 
 5380000   0.10548736 
 5390000   0.09895278 
 5400000  0.097031566 
 5410000   0.10098306 
 5420000   0.10025756 
 5430000   0.10344618 
 5440000   0.10368802 
 5450000   0.10293723 
 5460000   0.10279624 
 5470000   0.10569254 
 5480000   0.10076441 
 5490000    0.1020022 
 5500000   0.10208925 
 5510000   0.10679156 
 5520000  0.099613026 
 5530000  0.097152616 
 5540000   0.10604684 
 5550000   0.10643448 
 5560000   0.10169048 
 5570000  0.099556011 
 5580000   0.10414338 
 5590000  0.099144874 
 5600000  0.096373278 
 5610000   0.10060834 
 5620000   0.10207106 
 5630000  0.099190058 
 5640000   0.10652997 
 5650000  0.099042813 
 5660000   0.10433319 
 5670000  0.095412014 
 5680000   0.10483235 
 5690000   0.10276507 
 5700000  0.096849272 
 5710000  0.093011979 
 5720000  0.099107099 
 5730000   0.10185811 
 5740000  0.094037546 
 5750000   0.10012354 
 5760000  0.093657394 
 5770000   0.10421184 
 5780000  0.097557254 
 5790000   0.09719532 
 5800000  0.093678093 
 5810000   0.10046589 
 5820000  0.098662931 
 5830000  0.094927599 
 5840000   0.10287238 
 5850000  0.098919047 
 5860000  0.092769826 
 5870000   0.10318782 
 5880000  0.095484836 
 5890000    0.1030774 
 5900000  0.097674773 
 5910000  0.088451403 
 5920000  0.096463294 
 5930000  0.093898916 
 5940000    0.1052274 
 5950000  0.094271688 
 5960000   0.11107398 
 5970000   0.10900888 
 5980000   0.08974665 
 5990000   0.09224238 
 6000000   0.10042802 
 6010000  0.099919475 
 6020000   0.10673521 
 6030000   0.10818878 
 6040000  0.096931229 
 6050000    0.1047474 
 6060000    0.1104763 
 6070000   0.10516367 
 6080000   0.10384423 
 6090000  0.096047893 
 6100000  0.094529915 
 6110000   0.10011262 
 6120000   0.11217357 
 6130000   0.10720513 
 6140000   0.10138821 
 6150000   0.10071684 
 6160000   0.10095083 
 6170000  0.093685757 
 6180000  0.096531836 
 6190000  0.091757129 
 6200000  0.097578466 
 6210000   0.10750285 
 6220000   0.10566523 
 6230000    0.1076619 
 6240000  0.099398277 
 6250000   0.08678046 
 6260000   0.10020605 
 6270000    0.1099484 
 6280000   0.10371868 
 6290000  0.098319597 
 6300000   0.10607621 
 6310000  0.097056467 
 6320000  0.097719053 
 6330000   0.10951897 
 6340000   0.10479011 
 6350000   0.10298055 
 6360000   0.10109526 
 6370000   0.09904552 
 6380000  0.098818374 
 6390000  0.093983305 
 6400000   0.10247124 
 6410000  0.096888716 
 6420000    0.1033868 
 6430000   0.10105116 
 6440000   0.10947694 
 6450000  0.097939045 
 6460000   0.10264945 
 6470000   0.10104524 
 6480000   0.10920571 
 6490000  0.098986355 
 6500000  0.097819852 
 6510000  0.090889182 
 6520000   0.10157392 
 6530000  0.097546711 
 6540000   0.10220932 
 6550000   0.10764377 
 6560000  0.097159148 
 6570000   0.10650111 
 6580000   0.10106085 
 6590000  0.094468454 
 6600000  0.091354591 
 6610000   0.10555945 
 6620000  0.097455328 
 6630000   0.10389808 
 6640000    0.1020715 
 6650000  0.095356664 
 6660000   0.10551704 
 6670000   0.10042506 
 6680000   0.09152754 
 6690000    0.1051759 
 6700000  0.094937427 
 6710000   0.10473061 
 6720000   0.11690197 
 6730000  0.098239199 
 6740000  0.094877748 
 6750000  0.095767904 
 6760000   0.10628806 
 6770000  0.097873246 
 6780000  0.098257377 
 6790000   0.10994684 
 6800000   0.10216819 
 6810000  0.096986508 
 6820000   0.10161184 
 6830000   0.10818935 
 6840000   0.10684016 
 6850000   0.10921562 
 6860000   0.10488533 
 6870000  0.091346011 
 6880000   0.10003508 
 6890000   0.10047342 
 6900000   0.10226283 
 6910000   0.10030715 
 6920000  0.098548968 
 6930000   0.10207822 
 6940000  0.090184456 
 6950000   0.10415669 
 6960000   0.11532688 
 6970000  0.095795205 
 6980000   0.10679296 
 6990000   0.10972442 
 7000000   0.10185452 
 7010000   0.10350751 
 7020000   0.10885136 
 7030000    0.1095763 
 7040000   0.09741221 
 7050000   0.10507782 
 7060000   0.09928512 
 7070000   0.10300013 
 7080000   0.10360989 
 7090000    0.1021165 
 7100000  0.099186977 
 7110000   0.10577051 
 7120000   0.11306184 
 7130000  0.096768563 
 7140000   0.11093078 
 7150000   0.10260993 
 7160000    0.1037456 
 7170000  0.093603719 
 7180000  0.092295841 
 7190000  0.089495249 
 7200000   0.10428556 
 7210000   0.10109041 
 7220000   0.10312499 
 7230000  0.097087131 
 7240000   0.10265777 
 7250000  0.095906661 
 7260000  0.098640123 
 7270000   0.10372197 
 7280000   0.11072132 
 7290000  0.096758799 
 7300000   0.11293445 
 7310000  0.096224633 
 7320000   0.09068038 
 7330000   0.10442812 
 7340000   0.11042565 
 7350000   0.10324767 
 7360000  0.096905436 
 7370000  0.097431476 
 7380000   0.11007517 
 7390000   0.10900426 
 7400000   0.10484744 
 7410000   0.10063443 
 7420000  0.096657818 
 7430000   0.10410863 
 7440000   0.10020226 
 7450000  0.098068251 
 7460000   0.10082838 
 7470000   0.10140962 
 7480000  0.094481643 
 7490000  0.098072017 
 7500000   0.10198777 
 7510000   0.10077302 
 7520000   0.10194784 
 7530000  0.091423863 
 7540000  0.099627363 
 7550000   0.09935724 
 7560000  0.089132811 
 7570000    0.1031378 
 7580000   0.10632185 
 7590000   0.10056221 
 7600000   0.10575374 
 7610000  0.096507342 
 7620000   0.09205541 
 7630000   0.10304296 
 7640000   0.10664944 
 7650000  0.087527519 
 7660000  0.095930881 
 7670000   0.10584097 
 7680000   0.10687429 
 7690000   0.10943678 
 7700000  0.095687867 
 7710000   0.10924274 
 7720000   0.10265637 
 7730000  0.098791345 
 7740000  0.096603158 
 7750000  0.092033075 
 7760000   0.10269183 
 7770000   0.10129813 
 7780000   0.10806197 
 7790000  0.093317867 
 7800000  0.098391064 
 7810000   0.10017365 
 7820000  0.089893033 
 7830000  0.089852317 
 7840000  0.091093501 
 7850000   0.10864861 
 7860000   0.10047868 
 7870000  0.097870446 
 7880000  0.099447743 
 7890000   0.10053299 
 7900000   0.10049083 
 7910000   0.10201305 
 7920000   0.10647226 
 7930000   0.10182429 
 7940000   0.10153885 
 7950000   0.10486016 
 7960000   0.10348308 
 7970000   0.10046298 
 7980000   0.10418534 
 7990000  0.095392633 
 8000000  0.091860893 
 8010000  0.096152085 
 8020000  0.097904313 
 8030000     0.102827 
 8040000   0.10669069 
 8050000   0.10189705 
 8060000   0.10197319 
 8070000  0.099980859 
 8080000   0.10955345 
 8090000  0.099822459 
 8100000  0.099250384 
 8110000  0.097737378 
 8120000   0.11042961 
 8130000   0.10139525 
 8140000   0.11082232 
 8150000  0.095252151 
 8160000  0.099580682 
 8170000  0.098459133 
 8180000   0.11132386 
 8190000   0.10052965 
 8200000  0.094251598 
 8210000  0.092992014 
 8220000    0.1030223 
 8230000  0.096407791 
 8240000    0.1051634 
 8250000   0.10203401 
 8260000  0.094556107 
 8270000  0.099365133 
 8280000   0.10748104 
 8290000    0.1001088 
 8300000  0.099097889 
 8310000   0.10120127 
 8320000   0.10231239 
 8330000   0.10003029 
 8340000  0.095406578 
 8350000    0.1073986 
 8360000   0.10079332 
 8370000   0.10545455 
 8380000   0.10285627 
 8390000  0.094231764 
 8400000   0.09545953 
 8410000  0.096914595 
 8420000   0.10078444 
 8430000  0.092661663 
 8440000  0.095038432 
 8450000  0.092219514 
 8460000   0.10364536 
 8470000   0.10913281 
 8480000  0.091432037 
 8490000  0.088885735 
 8500000   0.10212163 
 8510000   0.10053367 
 8520000  0.098218725 
 8530000   0.10343949 
 8540000   0.11082457 
 8550000  0.096274342 
 8560000   0.10202326 
 8570000   0.10592809 
 8580000  0.098951256 
 8590000  0.099910331 
 8600000  0.094724995 
 8610000   0.10261597 
 8620000  0.092915455 
 8630000    0.0980569 
 8640000   0.10594551 
 8650000  0.099088495 
 8660000   0.10016018 
 8670000   0.10524538 
 8680000   0.10546803 
 8690000   0.10401535 
 8700000   0.10663903 
 8710000   0.10124771 
 8720000   0.10840208 
 8730000   0.10422093 
 8740000  0.096994264 
 8750000   0.10332146 
 8760000   0.10083217 
 8770000    0.0968967 
 8780000   0.10005621 
 8790000  0.099838903 
 8800000   0.10980476 
 8810000   0.10434963 
 8820000   0.10458166 
 8830000  0.088262656 
 8840000   0.10086619 
 8850000   0.11298416 
 8860000  0.097918545 
 8870000  0.099276303 
 8880000  0.093692475 
 8890000  0.097040433 
 8900000  0.095696829 
 8910000  0.097131959 
 8920000  0.094359584 
 8930000  0.093994794 
 8940000  0.094019157 
 8950000   0.10167462 
 8960000  0.094021954 
 8970000    0.1091413 
 8980000   0.09242179 
 8990000   0.10785405 
 9000000    0.1077387 
 9010000   0.10450216 
 9020000   0.10925523 
 9030000  0.098836752 
 9040000    0.1022253 
 9050000   0.10138863 
 9060000   0.09066138 
 9070000  0.090274676 
 9080000  0.097165947 
 9090000   0.10543849 
 9100000  0.095063404 
 9110000    0.0932546 
 9120000  0.099655775 
 9130000    0.1019645 
 9140000   0.10765494 
 9150000  0.092204985 
 9160000   0.11107504 
 9170000  0.094147223 
 9180000  0.097031603 
 9190000    0.1043024 
 9200000   0.10797508 
 9210000   0.11026666 
 9220000   0.10493067 
 9230000    0.1022022 
 9240000  0.092566361 
 9250000   0.10196968 
 9260000   0.10157762 
 9270000  0.091094183 
 9280000    0.1026602 
 9290000  0.094213337 
 9300000   0.10669136 
 9310000  0.097777345 
 9320000  0.098472415 
 9330000   0.10003273 
 9340000   0.10321633 
 9350000   0.09177076 
 9360000  0.094113354 
 9370000   0.11296553 
 9380000  0.098751208 
 9390000  0.094656443 
 9400000  0.086610317 
 9410000   0.10823769 
 9420000   0.10041775 
 9430000    0.1000483 
 9440000   0.10582576 
 9450000   0.10136013 
 9460000   0.10028179 
 9470000   0.10108628 
 9480000  0.096772885 
 9490000   0.11465235 
 9500000   0.11058561 
 9510000   0.11065945 
 9520000   0.10135653 
 9530000   0.11007672 
 9540000  0.095724821 
 9550000  0.099883574 
 9560000    0.0987975 
 9570000   0.10409006 
 9580000   0.09928062 
 9590000   0.10435957 
 9600000  0.099541303 
 9610000    0.1010033 
 9620000  0.097388796 
 9630000   0.10930878 
 9640000   0.10212452 
 9650000  0.094075686 
 9660000    0.1028055 
 9670000   0.10083558 
 9680000    0.1064848 
 9690000   0.10743098 
 9700000   0.10309056 
 9710000  0.097048262 
 9720000  0.099269327 
 9730000  0.094231695 
 9740000   0.10276231 
 9750000   0.10509243 
 9760000   0.10377839 
 9770000   0.10224179 
 9780000   0.09754903 
 9790000   0.10039417 
 9800000   0.10021564 
 9810000  0.097198734 
 9820000   0.10081051 
 9830000  0.099337999 
 9840000   0.09458566 
 9850000   0.11036993 
 9860000  0.088755531 
 9870000  0.099072485 
 9880000   0.10503191 
 9890000   0.10501885 
 9900000   0.10711068 
 9910000  0.093464484 
 9920000  0.099322246 
 9930000  0.096726774 
 9940000  0.091465085 
 9950000    0.1016543 
 9960000  0.098918499 
 9970000   0.10148471 
 9980000  0.093707132 
 9990000   0.10973633 
10000000  0.096805617 
10010000  0.098933454 
10020000    0.1054667 
10030000   0.10528175 
10040000   0.10159871 
10050000  0.095543493 
10060000   0.10181643 
10070000    0.1095743 
10080000   0.10481289 
10090000   0.10229315 
10100000  0.099146761 
10110000  0.098715987 
10120000   0.10253797 
10130000   0.09062123 
10140000   0.10881235 
10150000   0.10008359 
10160000  0.094969506 
10170000  0.098160641 
10180000   0.09250465 
10190000   0.10803237 
10200000   0.10513049 
10210000   0.10668043 
10220000   0.11115177 
10230000   0.10386116 
10240000  0.099708278 
10250000   0.11118754 
10260000  0.098294196 
10270000   0.10149978 
10280000   0.10024901 
10290000  0.092568255 
10300000   0.10649781 
10310000  0.099275994 
10320000  0.099912311 
10330000   0.11073598 
10340000   0.10100499 
10350000   0.11106128 
10360000  0.098823066 
10370000   0.10400141 
10380000  0.096038699 
10390000  0.096662216 
10400000  0.094324185 
10410000  0.095650917 
10420000   0.10286187 
10430000   0.10189182 
10440000   0.10363262 
10450000   0.10457617 
10460000  0.095825412 
10470000  0.090184192 
10480000  0.098915198 
10490000  0.096304771 
10500000  0.093498971 
10510000  0.093992173 
10520000   0.10803933 
10530000  0.099635022 
10540000  0.099081975 
10550000   0.10302109 
10560000   0.11614431 
10570000  0.098748238 
10580000   0.10354486 
10590000   0.10613316 
10600000   0.10416535 
10610000  0.094884004 
10620000   0.10537465 
10630000   0.09550938 
10640000   0.10089647 
10650000  0.091368702 
10660000  0.096648582 
10670000  0.097290858 
10680000    0.1005696 
10690000   0.10666999 
10700000   0.10054315 
10710000   0.10405085 
10720000   0.10660065 
10730000   0.10165818 
10740000   0.10224619 
10750000   0.10089794 
10760000  0.093893471 
10770000   0.09878122 
10780000   0.10462978 
10790000   0.10197302 
10800000   0.10919742 
10810000   0.09640373 
10820000  0.099678792 
10830000   0.10314255 
10840000  0.094681573 
10850000  0.099211941 
10860000   0.10243169 
10870000   0.10098098 
10880000  0.098359685 
10890000    0.1027014 
10900000  0.092587061 
10910000   0.10785457 
10920000  0.090310841 
10930000   0.10932882 
10940000   0.10770349 
10950000   0.10763149 
10960000   0.10456031 
10970000   0.10073634 
10980000   0.10520592 
10990000   0.09668982 
11000000   0.10871687 
11010000    0.1000627 
11020000   0.10114251 
11030000  0.099048343 
11040000  0.097027394 
11050000   0.10204093 
11060000   0.10272402 
11070000   0.10766551 
11080000  0.092078905 
11090000   0.10700896 
11100000   0.10188107 
11110000   0.10320194 
11120000  0.096679818 
11130000   0.10537977 
11140000   0.10917335 
11150000    0.1020803 
11160000   0.10061849 
11170000   0.10471881 
11180000  0.099158939 
11190000  0.094836107 
11200000   0.10627967 
11210000   0.10029331 
11220000  0.099018295 
11230000   0.11058528 
11240000  0.094280097 
11250000    0.1017867 
11260000   0.10130411 
11270000   0.10383425 
11280000   0.10322911 
11290000  0.098176674 
11300000  0.099627381 
11310000   0.10461489 
11320000   0.10212559 
11330000   0.10511248 
11340000   0.09857895 
11350000  0.094778883 
11360000   0.10348174 
11370000   0.11137818 
11380000   0.10449041 
11390000  0.098074269 
11400000  0.095632298 
11410000   0.09656062 
11420000   0.10021719 
11430000   0.11148521 
11440000  0.095542355 
11450000  0.088298836 
11460000   0.10071262 
11470000  0.095382064 
11480000    0.1018982 
11490000  0.098839412 
11500000   0.10907201 
11510000   0.11150006 
11520000  0.097377961 
11530000   0.10567528 
11540000  0.098030476 
11550000    0.1055171 
11560000  0.086733402 
11570000  0.096126496 
11580000  0.087712535 
11590000  0.097688712 
11600000   0.10584633 
11610000   0.10667082 
11620000  0.097756513 
11630000   0.09789847 
11640000  0.095671072 
11650000   0.10645249 
11660000   0.10188214 
11670000  0.090955204 
11680000  0.092934556 
11690000   0.10080548 
11700000   0.11329445 
11710000   0.10585351 
11720000  0.099434385 
11730000   0.10153881 
11740000  0.098080471 
11750000  0.093395603 
11760000  0.097131525 
11770000    0.1009347 
11780000   0.10107193 
11790000   0.08669119 
11800000   0.10247502 
11810000  0.093418055 
11820000  0.097181751 
11830000   0.10051098 
11840000   0.10008292 
11850000   0.10454269 
11860000   0.10882108 
11870000   0.10132612 
11880000   0.10844727 
11890000  0.099988637 
11900000  0.084269658 
11910000   0.10159676 
11920000   0.09766566 
11930000  0.096906692 
11940000   0.10208124 
11950000  0.097562311 
11960000   0.11315501 
11970000  0.099474635 
11980000   0.10277628 
11990000    0.1028994 
12000000   0.10533198 
12010000    0.1057581 
12020000  0.093573004 
12030000  0.094683674 
12040000  0.099472565 
12050000  0.098808151 
12060000  0.097653183 
12070000  0.097710865 
12080000  0.095612244 
12090000  0.097956346 
12100000   0.10420488 
12110000  0.095693431 
12120000  0.097516187 
12130000  0.098510652 
12140000  0.096785219 
12150000   0.10575946 
12160000  0.095071039 
12170000  0.096356657 
12180000  0.099895192 
12190000  0.094879605 
12200000   0.10177325 
12210000  0.096180268 
12220000   0.10253612 
12230000  0.098386146 
12240000   0.10886936 
12250000   0.11778345 
12260000  0.098067332 
12270000   0.10091212 
12280000   0.10128573 
12290000  0.095168664 
12300000   0.10362561 
12310000  0.098060106 
12320000    0.1057988 
12330000  0.099231062 
12340000   0.10173119 
12350000   0.10675255 
12360000   0.10559036 
12370000  0.095057922 
12380000  0.092926491 
12390000  0.098120378 
12400000   0.10827831 
12410000   0.10516556 
12420000  0.099660092 
12430000  0.097082688 
12440000  0.089323813 
12450000   0.10617441 
12460000   0.09578189 
12470000   0.10553309 
12480000   0.10268419 
12490000   0.10642937 
12500000  0.099123248 
12510000   0.10070577 
12520000  0.092308038 
12530000  0.098442961 
12540000   0.10140283 
12550000   0.10923886 
12560000  0.094783724 
12570000   0.09639678 
12580000   0.10645617 
12590000   0.10046009 
12600000  0.099074009 
12610000   0.10750529 
12620000   0.10078367 
12630000  0.098731371 
12640000   0.10832502 
12650000  0.095118388 
12660000  0.094787737 
12670000   0.10270417 
12680000   0.10467861 
12690000     0.102562 
12700000   0.10230804 
12710000   0.10249288 
12720000   0.10709065 
12730000   0.09850889 
12740000  0.091351054 
12750000  0.087788811 
12760000   0.10465199 
12770000   0.10623455 
12780000   0.11046665 
12790000   0.10167387 
12800000  0.093875259 
12810000   0.10293227 
12820000   0.10543752 
12830000  0.093723979 
12840000   0.10566066 
12850000    0.1114947 
12860000  0.098954222 
12870000   0.10704687 
12880000  0.099088842 
12890000  0.094509816 
12900000   0.11757382 
12910000  0.098660907 
12920000  0.098224787 
12930000   0.10389995 
12940000   0.10219318 
12950000  0.098629727 
12960000  0.098971034 
12970000  0.099374705 
12980000   0.10237609 
12990000   0.09257099 
13000000   0.10439533 
13010000   0.10260397 
13020000  0.092927492 
13030000   0.10143455 
13040000  0.092260933 
13050000   0.10703578 
13060000   0.10510909 
13070000  0.095659952 
13080000   0.11009726 
13090000   0.10746006 
13100000   0.10353519 
13110000   0.10384214 
13120000    0.1119482 
13130000   0.10644407 
13140000  0.095745865 
13150000   0.10521275 
13160000  0.097946356 
13170000  0.096446929 
13180000   0.10245792 
13190000   0.10466072 
13200000  0.092842503 
13210000   0.10398267 
13220000  0.091181674 
13230000   0.10315828 
13240000   0.10493151 
13250000    0.1022649 
13260000  0.094444863 
13270000  0.095316432 
13280000  0.096536489 
13290000  0.098750367 
13300000  0.094044256 
13310000  0.097613996 
13320000   0.10749943 
13330000  0.099261835 
13340000   0.10207545 
13350000    0.1034686 
13360000   0.10313904 
13370000  0.093559653 
13380000     0.108442 
13390000  0.092578608 
13400000  0.097900218 
13410000   0.09815891 
13420000   0.10172716 
13430000  0.098709636 
13440000  0.098775711 
13450000    0.1033177 
13460000  0.095072094 
13470000   0.10160941 
13480000  0.094221932 
13490000     0.104065 
13500000    0.1066114 
13510000  0.099315704 
13520000    0.1025494 
13530000  0.093992016 
13540000   0.10328306 
13550000   0.10243518 
13560000    0.1026817 
13570000   0.10205157 
13580000   0.10255216 
13590000   0.10270317 
13600000   0.10688141 
13610000   0.10384649 
13620000  0.098075682 
13630000  0.098469801 
13640000   0.10139608 
13650000   0.10304731 
13660000   0.10250672 
13670000   0.10156334 
13680000  0.091709671 
13690000   0.10471593 
13700000   0.10050403 
13710000    0.1174928 
13720000   0.10174866 
13730000   0.10238298 
13740000   0.10307622 
13750000  0.098467137 
13760000   0.11071609 
13770000   0.10791895 
13780000   0.10525823 
13790000   0.10379824 
13800000  0.095550425 
13810000   0.10663679 
13820000  0.098158358 
13830000  0.098062962 
13840000  0.097671677 
13850000   0.10859897 
13860000  0.095800434 
13870000   0.10149567 
13880000  0.091935282 
13890000   0.10301096 
13900000   0.09318298 
13910000   0.10085068 
13920000   0.10134878 
13930000    0.1094197 
13940000  0.099982734 
13950000   0.10005323 
13960000   0.10358181 
13970000  0.096053067 
13980000  0.093528888 
13990000   0.10330228 
14000000   0.10492003 
14010000   0.10238948 
14020000   0.10219845 
14030000   0.10950867 
14040000   0.09706732 
14050000   0.10224651 
14060000   0.10550301 
14070000   0.10984879 
14080000   0.10264946 
14090000  0.097468776 
14100000   0.10113761 
14110000   0.10337748 
14120000  0.099201813 
14130000  0.096750858 
14140000  0.091468671 
14150000   0.10725857 
14160000   0.10031673 
14170000   0.10386456 
14180000   0.10274188 
14190000   0.10562324 
14200000  0.094242914 
14210000   0.10149442 
14220000  0.093942837 
14230000   0.10341758 
14240000    0.0967272 
14250000    0.1012135 
14260000   0.10262764 
14270000   0.10140738 
14280000   0.10971483 
14290000  0.098054633 
14300000   0.10655996 
14310000  0.094131847 
14320000   0.10486729 
14330000   0.10356838 
14340000  0.095849319 
14350000  0.097742003 
14360000   0.10304195 
14370000  0.095867403 
14380000   0.10400584 
14390000  0.094371922 
14400000   0.10287584 
14410000  0.091045914 
14420000   0.10556901 
14430000  0.092788892 
14440000  0.099473223 
14450000  0.097074528 
14460000  0.098567075 
14470000   0.10394332 
14480000    0.1075974 
14490000  0.098419969 
14500000   0.11283342 
14510000   0.10019432 
14520000  0.097850187 
14530000   0.10058213 
14540000   0.10744493 
14550000   0.10640397 
14560000  0.085597206 
14570000   0.10429313 
14580000    0.1030079 
14590000   0.09726328 
14600000  0.091990701 
14610000   0.10373129 
14620000    0.1035074 
14630000   0.10250671 
14640000   0.10435103 
14650000  0.098303513 
14660000  0.090231706 
14670000  0.098718022 
14680000  0.094976475 
14690000  0.095810448 
14700000  0.098414133 
14710000  0.097272587 
14720000   0.10714824 
14730000   0.09732368 
14740000   0.10662178 
14750000  0.096895044 
14760000   0.10655444 
14770000   0.10355132 
14780000   0.10384792 
14790000  0.097103046 
14800000  0.095025827 
14810000  0.095574191 
14820000    0.1064013 
14830000  0.095803861 
14840000  0.095524873 
14850000  0.091765955 
14860000   0.10794556 
14870000  0.099605414 
14880000   0.11051523 
14890000   0.10102307 
14900000  0.091925272 
14910000   0.10197959 
14920000   0.10748499 
14930000   0.10445992 
14940000   0.10210257 
14950000   0.10112604 
14960000   0.10186484 
14970000   0.09583643 
14980000   0.11068726 
14990000  0.095281771 
15000000   0.10841739 
15010000   0.10885468 
15020000  0.097732591 
15030000  0.098954693 
15040000  0.094398886 
15050000   0.10188478 
15060000  0.098434364 
15070000    0.1015978 
15080000  0.092793027 
15090000   0.10211658 
15100000   0.10155872 
15110000  0.098810292 
15120000   0.10055434 
15130000  0.098400655 
15140000   0.10357591 
15150000  0.097413305 
15160000  0.086851261 
15170000  0.097378325 
15180000   0.10070651 
15190000   0.10971053 
15200000  0.099874964 
15210000  0.095100558 
15220000   0.10967485 
15230000   0.11156197 
15240000   0.10745651 
15250000  0.098228156 
15260000  0.098353715 
15270000  0.095611751 
15280000   0.10195448 
15290000   0.10090814 
15300000   0.10044548 
15310000   0.10373003 
15320000   0.10534612 
15330000  0.099189265 
15340000  0.098110211 
15350000    0.1049707 
15360000   0.10084674 
15370000   0.10345443 
15380000  0.098235964 
15390000   0.10312038 
15400000   0.10231475 
15410000  0.098019052 
15420000  0.099902403 
15430000  0.096004497 
15440000  0.098324789 
15450000   0.10251037 
15460000   0.10540806 
15470000  0.097324707 
15480000   0.10059036 
15490000   0.10095914 
15500000    0.1081493 
15510000   0.10276223 
15520000   0.10448421 
15530000   0.10217066 
15540000  0.099760366 
15550000  0.092404373 
15560000   0.10517828 
15570000   0.10227616 
15580000  0.095945713 
15590000  0.094572176 
15600000   0.10401483 
15610000   0.10565536 
15620000  0.099339677 
15630000  0.096531207 
15640000  0.092753581 
15650000   0.10441522 
15660000  0.099849735 
15670000   0.10413009 
15680000   0.10067274 
15690000   0.10771908 
15700000   0.10295413 
15710000   0.10445857 
15720000   0.10789831 
15730000  0.097248789 
15740000  0.096068271 
15750000   0.10518715 
15760000   0.10087809 
15770000   0.10103173 
15780000   0.10154753 
15790000   0.10430489 
15800000  0.098481728 
15810000  0.096147295 
15820000   0.09687528 
15830000  0.096350433 
15840000   0.10010801 
15850000  0.096115731 
15860000  0.091096881 
15870000    0.1077198 
15880000   0.10324636 
15890000  0.093675067 
15900000  0.092671196 
15910000  0.096167292 
15920000   0.10589468 
15930000  0.095800017 
15940000  0.099974542 
15950000   0.10136895 
15960000   0.10426904 
15970000  0.095529882 
15980000   0.10006704 
15990000   0.10764359 
16000000   0.10070773 
16010000    0.1005947 
16020000   0.10482499 
16030000  0.092279932 
16040000  0.092288578 
16050000  0.088144013 
16060000  0.096669342 
16070000  0.091087582 
16080000   0.11073772 
16090000   0.10163773 
16100000  0.094627274 
16110000    0.1014167 
16120000   0.11244035 
16130000  0.097459473 
16140000   0.10369218 
16150000   0.10334588 
16160000   0.10733507 
16170000   0.10812824 
16180000   0.10708431 
16190000  0.094876338 
16200000  0.095402473 
16210000   0.10389514 
16220000   0.10251734 
16230000   0.10465094 
16240000  0.097176501 
16250000  0.096134328 
16260000    0.1003224 
16270000   0.10173856 
16280000   0.10173302 
16290000   0.10527804 
16300000  0.085927373 
16310000  0.097144658 
16320000    0.1014121 
16330000   0.09769167 
16340000   0.10054376 
16350000  0.094350751 
16360000   0.10292785 
16370000   0.11012332 
16380000   0.10604566 
16390000   0.10227353 
16400000   0.10850909 
16410000   0.09472795 
16420000   0.10687231 
16430000  0.094183273 
16440000   0.10470265 
16450000   0.10280625 
16460000  0.092968035 
16470000  0.096649878 
16480000   0.10296459 
16490000   0.10384887 
16500000   0.09584101 
16510000  0.088684992 
16520000   0.10876097 
16530000  0.099222611 
16540000   0.10955939 
16550000  0.096468854 
16560000    0.1039087 
16570000  0.099680853 
16580000   0.09602819 
16590000   0.10314656 
16600000  0.095384805 
16610000    0.1002655 
16620000  0.099722992 
16630000   0.10002116 
16640000  0.095611506 
16650000   0.10161667 
16660000   0.10733194 
16670000    0.1008113 
16680000   0.10275911 
16690000  0.095920268 
16700000  0.093921567 
16710000   0.10225459 
16720000  0.088863421 
16730000  0.099485244 
16740000   0.10497326 
16750000   0.10224536 
16760000   0.10159984 
16770000   0.10441944 
16780000   0.10143178 
16790000  0.099191266 
16800000    0.1007873 
16810000   0.10180051 
16820000   0.10462808 
16830000  0.098386893 
16840000   0.10289925 
16850000   0.10473867 
16860000  0.091336879 
16870000  0.095256624 
16880000  0.095698362 
16890000  0.099071687 
16900000    0.1008839 
16910000  0.099531034 
16920000  0.098765635 
16930000   0.10696061 
16940000  0.098250508 
16950000   0.10694007 
16960000  0.096898492 
16970000  0.097645146 
16980000  0.097437095 
16990000   0.09405852 
17000000  0.098057513 
17010000   0.09562296 
17020000  0.098844745 
17030000   0.10876271 
17040000  0.090717982 
17050000  0.099316183 
17060000   0.09200103 
17070000   0.10712155 
17080000  0.098828048 
17090000  0.097917337 
17100000   0.09943094 
17110000    0.1045671 
17120000  0.094588463 
17130000   0.10538936 
17140000  0.096003777 
17150000   0.10675469 
17160000   0.10386101 
17170000   0.10395881 
17180000   0.10585816 
17190000  0.093556578 
17200000  0.095322619 
17210000  0.093279263 
17220000  0.092972478 
17230000   0.09627569 
17240000  0.094877516 
17250000  0.095534774 
17260000   0.10301259 
17270000  0.096461358 
17280000  0.094520375 
17290000    0.1030512 
17300000   0.10606884 
17310000  0.092428057 
17320000   0.10729405 
17330000   0.10778919 
17340000   0.10238484 
17350000   0.10610712 
17360000   0.10362492 
17370000   0.10089109 
17380000   0.10803181 
17390000  0.097537084 
17400000   0.10549926 
17410000  0.095504872 
17420000   0.10119034 
17430000  0.098851626 
17440000  0.096776901 
17450000  0.097796992 
17460000  0.094864651 
17470000  0.097821002 
17480000   0.10275462 
17490000  0.098227568 
17500000   0.11001075 
17510000   0.11019875 
17520000  0.097891272 
17530000   0.10181852 
17540000   0.10146722 
17550000  0.098251653 
17560000   0.10178889 
17570000  0.097253965 
17580000   0.10601513 
17590000   0.10453335 
17600000   0.10273386 
17610000  0.092858499 
17620000   0.10360693 
17630000   0.10758771 
17640000  0.096201405 
17650000   0.10738468 
17660000  0.093589902 
17670000  0.095112468 
17680000   0.11242176 
17690000   0.10797963 
17700000  0.098922129 
17710000  0.097614465 
17720000   0.09383803 
17730000   0.10201256 
17740000  0.092865706 
17750000   0.10171082 
17760000  0.097407018 
17770000  0.099148362 
17780000  0.098682291 
17790000   0.10032224 
17800000  0.098028236 
17810000   0.10386358 
17820000   0.10591198 
17830000  0.098637252 
17840000  0.099310152 
17850000  0.093135882 
17860000   0.10112764 
17870000    0.1097062 
17880000  0.097477979 
17890000   0.10021119 
17900000   0.10021379 
17910000  0.098607621 
17920000    0.1055308 
17930000  0.097257258 
17940000   0.10352641 
17950000   0.10667287 
17960000  0.095995674 
17970000  0.098491249 
17980000    0.1001481 
17990000  0.099548377 
18000000   0.10376466 
18010000   0.10056105 
18020000  0.099485743 
18030000  0.097522886 
18040000   0.11100348 
18050000    0.1031335 
18060000   0.10272194 
18070000  0.099825306 
18080000   0.10502839 
18090000   0.10224625 
18100000  0.094346373 
18110000   0.09094581 
18120000  0.099625917 
18130000   0.10714894 
18140000   0.10172524 
18150000  0.093027703 
18160000   0.10430422 
18170000   0.09237268 
18180000   0.10266001 
18190000  0.095448972 
18200000   0.10109427 
18210000  0.093404277 
18220000  0.097203252 
18230000  0.098150621 
18240000  0.098184921 
18250000   0.10928438 
18260000  0.094769881 
18270000   0.10185376 
18280000  0.097557179 
18290000   0.10784449 
18300000   0.10319467 
18310000   0.09695417 
18320000   0.09663195 
18330000  0.098165285 
18340000   0.10370725 
18350000  0.097093163 
18360000  0.097310318 
18370000   0.09880847 
18380000   0.10690246 
18390000   0.10401706 
18400000  0.099724568 
18410000   0.10324733 
18420000  0.096414253 
18430000   0.10140223 
18440000  0.093546853 
18450000   0.09967423 
18460000   0.10026682 
18470000  0.097190059 
18480000  0.094007719 
18490000   0.10696422 
18500000   0.10126486 
18510000  0.096419846 
18520000   0.10202556 
18530000  0.089511816 
18540000  0.097787682 
18550000  0.096503598 
18560000   0.11018387 
18570000   0.10854869 
18580000   0.10253212 
18590000   0.10302013 
18600000   0.11170791 
18610000  0.094194249 
18620000   0.10784007 
18630000  0.097803636 
18640000   0.10180547 
18650000  0.090677951 
18660000   0.10549165 
18670000   0.09474779 
18680000   0.09879763 
18690000    0.1014475 
18700000     0.100245 
18710000  0.096654873 
18720000    0.1094789 
18730000   0.10533792 
18740000   0.10383012 
18750000   0.10305658 
18760000  0.090946432 
18770000   0.10389739 
18780000    0.1004308 
18790000   0.10127453 
18800000    0.1058776 
18810000   0.10143002 
18820000   0.10325608 
18830000  0.098014872 
18840000   0.10030616 
18850000   0.10023212 
18860000  0.099121411 
18870000   0.10252888 
18880000   0.10339021 
18890000   0.10095239 
18900000   0.09623821 
18910000  0.092601338 
18920000  0.092566866 
18930000  0.097394739 
18940000   0.10385546 
18950000  0.094915719 
18960000   0.10362008 
18970000  0.098374905 
18980000  0.090294973 
18990000  0.097854178 
19000000  0.095943993 
19010000  0.098072831 
19020000   0.09676049 
19030000  0.098871009 
19040000  0.096186344 
19050000   0.10886148 
19060000  0.096496398 
19070000   0.10835328 
19080000   0.10830166 
19090000   0.10230263 
19100000   0.10265674 
19110000   0.10131947 
19120000  0.099247395 
19130000  0.098601708 
19140000  0.097317868 
19150000  0.098450852 
19160000  0.094968929 
19170000   0.10137188 
19180000   0.10576167 
19190000  0.096756504 
19200000   0.10135104 
19210000   0.10502761 
19220000    0.1045672 
19230000   0.10210984 
19240000   0.10133465 
19250000   0.10129945 
19260000   0.10602085 
19270000  0.094534871 
19280000  0.095606728 
19290000    0.1160553 
19300000   0.10678774 
19310000   0.10727287 
19320000    0.1012497 
19330000   0.10586869 
19340000   0.10505844 
19350000  0.093492255 
19360000   0.10509686 
19370000  0.098710483 
19380000   0.10421827 
19390000   0.10034582 
19400000  0.099852268 
19410000  0.096908361 
19420000   0.10475183 
19430000   0.11021795 
19440000   0.10262133 
19450000   0.09193798 
19460000  0.098485576 
19470000  0.092024563 
19480000   0.10657107 
19490000   0.10289709 
19500000   0.10916149 
19510000   0.10468979 
19520000  0.095929708 
19530000  0.091916612 
19540000    0.1050562 
19550000  0.099098445 
19560000   0.10423265 
19570000   0.10914583 
19580000   0.10694311 
19590000  0.099242523 
19600000   0.10695338 
19610000  0.092880532 
19620000   0.10524805 
19630000   0.09386411 
19640000  0.093481974 
19650000  0.096193366 
19660000  0.092145597 
19670000  0.094724447 
19680000   0.10653352 
19690000    0.0939485 
19700000    0.1059628 
19710000   0.10295131 
19720000  0.091314308 
19730000   0.10178082 
19740000    0.0994638 
19750000   0.10294051 
19760000  0.099077511 
19770000  0.098612037 
19780000   0.09947018 
19790000   0.10457658 
19800000  0.097103827 
19810000  0.098694114 
19820000   0.10437846 
19830000   0.10963828 
19840000   0.10373587 
19850000   0.10239231 
19860000   0.10914921 
19870000   0.10283496 
19880000  0.096326201 
19890000     0.106916 
19900000   0.10079742 
19910000    0.1046638 
19920000  0.099645474 
19930000   0.10051236 
19940000   0.10300462 
19950000  0.091439363 
19960000    0.1035622 
19970000   0.10113935 
19980000  0.098995487 
19990000   0.10682995 
20000000    0.1117693 
20010000  0.094681115 
20020000      0.10479 
20030000   0.10020769 
20040000   0.10284893 
20050000   0.10106446 
20060000   0.10271439 
20070000   0.10653238 
20080000   0.10772882 
20090000  0.099080501 
20100000  0.099256748 
20110000   0.10060925 
20120000  0.094015912 
20130000   0.10418421 
20140000  0.098046891 
20150000  0.092912604 
20160000   0.10506254 
20170000    0.1061772 
20180000  0.098483708 
20190000   0.10077781 
20200000   0.10889505 
20210000   0.10682439 
20220000    0.1061046 
20230000   0.10289356 
20240000   0.10616026 
20250000   0.09541926 
20260000   0.10130603 
20270000    0.0994533 
20280000   0.10071735 
20290000   0.09666312 
20300000   0.10075383 
20310000   0.10944835 
20320000  0.098178949 
20330000   0.09739026 
20340000   0.10314874 
20350000  0.099058949 
20360000    0.1000768 
20370000   0.10103368 
20380000   0.10920576 
20390000  0.087712187 
20400000   0.10402305 
20410000   0.10095686 
20420000  0.094968772 
20430000  0.098827638 
20440000  0.095205275 
20450000   0.10615579 
20460000   0.10141941 
20470000   0.10267368 
20480000   0.10642348 
20490000   0.10109616 
20500000   0.10362912 
20510000   0.10306227 
20520000  0.087768346 
20530000   0.09848409 
20540000   0.08689246 
20550000   0.08981221 
20560000   0.11339762 
20570000  0.093635706 
20580000  0.089993326 
20590000   0.10360145 
20600000  0.097677787 
20610000  0.093604276 
20620000    0.1079304 
20630000  0.094768963 
20640000   0.10627309 
20650000   0.10699672 
20660000  0.099744069 
20670000  0.098221806 
20680000    0.1004097 
20690000   0.10326845 
20700000   0.10530896 
20710000  0.098934032 
20720000   0.10129389 
20730000   0.10284241 
20740000   0.10216938 
20750000   0.11473049 
20760000   0.10096049 
20770000  0.098226214 
20780000   0.10328065 
20790000   0.11453909 
20800000   0.11691332 
20810000   0.10496267 
20820000  0.098308836 
20830000  0.099110123 
20840000  0.096398556 
20850000  0.096777298 
20860000  0.099458629 
20870000  0.099538853 
20880000  0.091234872 
20890000  0.097966937 
20900000  0.088478602 
20910000  0.093694593 
20920000   0.09993903 
20930000  0.098379615 
20940000  0.092120875 
20950000   0.10113194 
20960000   0.10008558 
20970000   0.11089703 
20980000   0.10163647 
20990000  0.097365033 
21000000  0.092786622 
21010000  0.091861167 
21020000  0.097420758 
21030000   0.10562318 
21040000   0.10788618 
21050000   0.10005144 
21060000   0.10743173 
21070000   0.10086615 
21080000  0.096762286 
21090000     0.106586 
21100000  0.099402229 
21110000   0.10732582 
21120000   0.10132153 
21130000  0.094037667 
21140000   0.10039508 
21150000    0.1020282 
21160000   0.09301593 
21170000   0.10258941 
21180000   0.10694185 
21190000  0.093604464 
21200000   0.10294615 
21210000    0.1059432 
21220000  0.094707921 
21230000  0.094812758 
21240000  0.098374483 
21250000   0.10395634 
21260000  0.093633073 
21270000  0.089360237 
21280000   0.10845644 
21290000   0.10154833 
21300000   0.10175061 
21310000   0.10230235 
21320000   0.10734303 
21330000   0.10356677 
21340000   0.10394577 
21350000   0.10804607 
21360000  0.098911497 
21370000  0.092063408 
21380000  0.099459722 
21390000    0.1030949 
21400000  0.098987845 
21410000   0.10505895 
21420000   0.10406353 
21430000   0.09743544 
21440000  0.098485987 
21450000   0.11083594 
21460000  0.097214029 
21470000   0.09223304 
21480000  0.086637235 
21490000  0.096441295 
21500000   0.10234389 
21510000   0.09264012 
21520000   0.10203737 
21530000   0.11086967 
21540000  0.090159545 
21550000  0.099052003 
21560000   0.10631195 
21570000  0.099094749 
21580000  0.091822286 
21590000  0.097204001 
21600000   0.10559542 
21610000  0.096899219 
21620000   0.09850967 
21630000   0.10334226 
21640000   0.10557346 
21650000  0.089694905 
21660000    0.1131178 
21670000   0.10962489 
21680000    0.1087194 
21690000   0.10167142 
21700000   0.09584923 
21710000  0.097628062 
21720000  0.095917446 
21730000   0.10097665 
21740000  0.096274205 
21750000  0.099634778 
21760000  0.096264087 
21770000   0.11821894 
21780000   0.10833766 
21790000   0.10300409 
21800000   0.10111156 
21810000  0.095428217 
21820000   0.10482247 
21830000  0.096347073 
21840000   0.10306306 
21850000  0.096437213 
21860000   0.10283904 
21870000   0.10391112 
21880000  0.096593853 
21890000   0.10380461 
21900000   0.10304498 
21910000  0.098296384 
21920000  0.098695176 
21930000  0.097353987 
21940000   0.10079665 
21950000  0.097979027 
21960000     0.105543 
21970000   0.10003362 
21980000   0.10387737 
21990000   0.10615488 
22000000   0.10279698 
22010000   0.10395977 
22020000  0.099310131 
22030000  0.098517663 
22040000   0.10114407 
22050000   0.10566982 
22060000   0.10385178 
22070000   0.10742685 
22080000  0.099504706 
22090000   0.10298496 
22100000    0.0968044 
22110000  0.099890732 
22120000  0.094407588 
22130000   0.10425668 
22140000  0.099861773 
22150000   0.10118017 
22160000    0.1019154 
22170000   0.10323966 
22180000   0.09945489 
22190000   0.09622956 
22200000    0.1085028 
22210000   0.10529274 
22220000  0.096348835 
22230000   0.10221316 
22240000  0.098645204 
22250000   0.11194838 
22260000  0.099120685 
22270000   0.10043399 
22280000   0.10554148 
22290000   0.10019533 
22300000   0.10084453 
22310000  0.094954602 
22320000  0.095518664 
22330000  0.098086387 
22340000   0.10184847 
22350000  0.098332526 
22360000   0.10215432 
22370000  0.096910242 
22380000   0.10391892 
22390000  0.093979691 
22400000   0.10235045 
22410000   0.10927557 
22420000   0.10857263 
22430000   0.10406547 
22440000  0.099535758 
22450000   0.10037593 
22460000   0.10177319 
22470000  0.098950917 
22480000  0.095960184 
22490000  0.095212892 
22500000  0.096224069 
22510000   0.09335211 
22520000   0.10790195 
22530000    0.1097745 
22540000   0.10607805 
22550000   0.10210704 
22560000   0.10404473 
22570000  0.095062035 
22580000  0.092537017 
22590000  0.098667425 
22600000   0.10390057 
22610000  0.095820406 
22620000   0.10484456 
22630000  0.096105262 
22640000  0.099415551 
22650000   0.10448394 
22660000   0.10406119 
22670000  0.099461205 
22680000  0.091194405 
22690000  0.093524603 
22700000   0.10660384 
22710000  0.091525167 
22720000   0.10525316 
22730000   0.10589099 
22740000  0.098256755 
22750000   0.10008958 
22760000   0.09969344 
22770000    0.1034424 
22780000   0.10403501 
22790000   0.10196474 
22800000   0.10043747 
22810000  0.095502151 
22820000   0.10048028 
22830000   0.10364496 
22840000  0.089242339 
22850000  0.092117723 
22860000   0.10774327 
22870000   0.10560839 
22880000   0.10562587 
22890000   0.10225378 
22900000  0.099564507 
22910000  0.099966691 
22920000  0.094941853 
22930000   0.10114757 
22940000   0.10633117 
22950000   0.09632973 
22960000   0.10672723 
22970000  0.099834629 
22980000  0.097248933 
22990000  0.094431509 
23000000    0.1028795 
23010000   0.10359816 
23020000  0.096612016 
23030000  0.097270837 
23040000  0.095480028 
23050000   0.10821865 
23060000   0.10040226 
23070000   0.10314863 
23080000  0.086326797 
23090000  0.097780036 
23100000  0.097292337 
23110000   0.11096731 
23120000   0.10063172 
23130000  0.095613986 
23140000  0.093881891 
23150000   0.10794499 
23160000   0.10671938 
23170000  0.098183658 
23180000  0.098320305 
23190000   0.10645673 
23200000   0.10169897 
23210000   0.10773633 
23220000  0.097477698 
23230000   0.10367656 
23240000   0.10078496 
23250000   0.10024277 
23260000  0.099208974 
23270000    0.1082202 
23280000   0.10226063 
23290000   0.10542783 
23300000  0.099593339 
23310000  0.092195922 
23320000   0.09788837 
23330000    0.1013376 
23340000   0.10713508 
23350000   0.10656191 
23360000   0.10131047 
23370000   0.10197288 
23380000   0.10083208 
23390000  0.097925489 
23400000   0.10160105 
23410000  0.094737687 
23420000  0.090960981 
23430000   0.10785004 
23440000   0.10947242 
23450000  0.098955024 
23460000   0.11697195 
23470000  0.098023008 
23480000   0.08850148 
23490000  0.094448972 
23500000  0.095741564 
23510000   0.10324957 
23520000   0.09854784 
23530000  0.098150734 
23540000  0.094677774 
23550000   0.10095977 
23560000   0.10161953 
23570000  0.083261578 
23580000  0.096114085 
23590000   0.10234481 
23600000  0.099102884 
23610000   0.10076623 
23620000   0.10119855 
23630000   0.10725773 
23640000  0.096150473 
23650000   0.10718991 
23660000   0.10974387 
23670000  0.092894686 
23680000  0.098492862 
23690000  0.092056673 
23700000   0.10283504 
23710000   0.10235117 
23720000  0.094483222 
23730000   0.10422415 
23740000  0.098118997 
23750000  0.094344518 
23760000  0.098752339 
23770000     0.105464 
23780000   0.11111319 
23790000  0.098361845 
23800000  0.097804351 
23810000   0.12009607 
23820000   0.11014232 
23830000   0.10228865 
23840000   0.10852123 
23850000  0.094082853 
23860000  0.092834257 
23870000   0.10822409 
23880000  0.092012154 
23890000  0.098392956 
23900000   0.09394285 
23910000   0.10461571 
23920000   0.11209584 
23930000   0.10548824 
23940000  0.090470608 
23950000   0.10060222 
23960000    0.1017478 
23970000  0.094902319 
23980000  0.090473769 
23990000   0.10925607 
24000000  0.095034748 
24010000  0.097786927 
24020000   0.10547856 
24030000  0.094600423 
24040000   0.10186939 
24050000  0.092248398 
24060000   0.10544813 
24070000  0.099046166 
24080000  0.096240438 
24090000   0.10358411 
24100000   0.10650908 
24110000  0.096367568 
24120000      0.10251 
24130000  0.091266537 
24140000  0.097734334 
24150000   0.10714567 
24160000  0.098662571 
24170000   0.10176918 
24180000  0.098670163 
24190000  0.097047862 
24200000   0.10210387 
24210000  0.099651936 
24220000  0.095205645 
24230000  0.096517185 
24240000   0.10029999 
24250000   0.10174484 
24260000   0.10469662 
24270000   0.10445043 
24280000  0.097795895 
24290000   0.10014485 
24300000   0.09302524 
24310000  0.092785735 
24320000  0.089741963 
24330000   0.10457762 
24340000   0.10269791 
24350000   0.10126277 
24360000  0.094262968 
24370000   0.09749649 
24380000   0.11091276 
24390000   0.10029829 
24400000   0.10341497 
24410000  0.094400166 
24420000   0.10218203 
24430000   0.10518616 
24440000  0.097689772 
24450000   0.10494141 
24460000   0.10351435 
24470000   0.10882531 
24480000   0.10353649 
24490000   0.10384997 
24500000  0.099830433 
24510000   0.10172689 
24520000  0.096985988 
24530000  0.093318635 
24540000   0.10710996 
24550000  0.092179159 
24560000   0.10576624 
24570000  0.096533039 
24580000   0.10338971 
24590000   0.10382198 
24600000   0.09127911 
24610000  0.092588236 
24620000  0.098540699 
24630000  0.099369441 
24640000  0.099952288 
24650000  0.094839192 
24660000   0.10743627 
24670000  0.098311206 
24680000  0.092772587 
24690000   0.09349646 
24700000   0.10101722 
24710000  0.099910679 
24720000  0.094585253 
24730000  0.099125503 
24740000   0.10143242 
24750000   0.10575458 
24760000  0.095633994 
24770000   0.10158633 
24780000  0.096062925 
24790000   0.10546178 
24800000  0.098578398 
24810000   0.10310083 
24820000   0.10092871 
24830000  0.097597709 
24840000  0.097384897 
24850000  0.096274189 
24860000   0.10051525 
24870000   0.10139625 
24880000   0.10155874 
24890000   0.10107925 
24900000   0.09838991 
24910000   0.10461076 
24920000  0.090197222 
24930000  0.095350232 
24940000  0.097638863 
24950000  0.096428906 
24960000  0.088329892 
24970000  0.099835929 
24980000   0.09944754 
24990000  0.096498535 
25000000  0.098681127 
25010000   0.10423158 
25020000   0.10782001 
25030000  0.094755639 
25040000    0.1002626 
25050000   0.10521329 
25060000   0.10321092 
25070000  0.099291632 
25080000   0.10597474 
25090000   0.10711269 
25100000   0.10640884 
25110000   0.10090167 
25120000  0.093923331 
25130000  0.097326578 
25140000    0.1042903 
25150000  0.095801057 
25160000   0.10290373 
25170000  0.092210513 
25180000  0.086735767 
25190000   0.10468656 
25200000   0.10305676 
25210000  0.097692388 
25220000   0.10132089 
25230000  0.093916881 
25240000  0.095835636 
25250000    0.1027726 
25260000   0.10328846 
25270000  0.092744751 
25280000  0.097888166 
25290000  0.094087487 
25300000  0.096382364 
25310000  0.093737017 
25320000   0.10261608 
25330000  0.095123753 
25340000  0.099863513 
25350000   0.10148782 
25360000  0.095959321 
25370000  0.098583282 
25380000  0.096239872 
25390000  0.099703661 
25400000  0.098391631 
25410000  0.096609861 
25420000   0.10571554 
25430000  0.097897994 
25440000   0.10107173 
25450000  0.095482422 
25460000  0.088536147 
25470000  0.094232009 
25480000   0.10056208 
25490000   0.10457293 
25500000   0.10422608 
25510000   0.10945509 
25520000   0.10875701 
25530000  0.095890556 
25540000   0.10534635 
25550000  0.099743473 
25560000  0.084807055 
25570000   0.10043631 
25580000   0.09341456 
25590000  0.098242116 
25600000   0.10129534 
25610000   0.10373151 
25620000   0.10208614 
25630000  0.097759949 
25640000   0.10036902 
25650000  0.097397025 
25660000   0.10367018 
25670000   0.10470053 
25680000  0.094806982 
25690000   0.10196503 
25700000   0.11532804 
25710000    0.1004608 
25720000   0.10375355 
25730000   0.10385739 
25740000  0.095708957 
25750000   0.10161374 
25760000  0.098795417 
25770000   0.10480307 
25780000  0.093044527 
25790000  0.094473109 
25800000   0.10893055 
25810000   0.10711183 
25820000  0.094456469 
25830000    0.1003143 
25840000    0.1004668 
25850000   0.10143023 
25860000  0.096407814 
25870000   0.10123808 
25880000  0.099268305 
25890000   0.10730567 
25900000  0.096830762 
25910000   0.10114823 
25920000   0.10739812 
25930000  0.094167786 
25940000  0.096095457 
25950000  0.092967895 
25960000  0.098457067 
25970000   0.10371985 
25980000   0.10050241 
25990000   0.11040114 
26000000  0.095981604 
26010000  0.096840912 
26020000    0.1069846 
26030000   0.10636148 
26040000    0.1007617 
26050000  0.094399233 
26060000    0.1039261 
26070000   0.10262178 
26080000   0.10415019 
26090000  0.097483541 
26100000   0.10614524 
26110000   0.10648224 
26120000   0.10071776 
26130000   0.09947597 
26140000  0.093275384 
26150000  0.098638012 
26160000   0.09030352 
26170000   0.09101263 
26180000   0.10408379 
26190000   0.11022977 
26200000   0.10982791 
26210000   0.09003796 
26220000   0.10457234 
26230000  0.097530193 
26240000   0.10578149 
26250000  0.093800294 
26260000  0.096036068 
26270000  0.098601242 
26280000   0.10184254 
26290000   0.10943208 
26300000  0.095544448 
26310000   0.10651231 
26320000   0.10287941 
26330000  0.094571175 
26340000   0.11067319 
26350000  0.090972734 
26360000   0.10967008 
26370000  0.098960059 
26380000  0.099817138 
26390000  0.099635218 
26400000   0.10574331 
26410000    0.1015872 
26420000  0.086408004 
26430000   0.10106519 
26440000   0.10237518 
26450000   0.10396512 
26460000    0.1119271 
26470000   0.10313169 
26480000  0.097810095 
26490000   0.10579893 
26500000   0.10251675 
26510000   0.10218013 
26520000  0.097426194 
26530000  0.097163382 
26540000   0.10266321 
26550000   0.10903998 
26560000  0.098708842 
26570000    0.1003323 
26580000  0.097201681 
26590000   0.10102103 
26600000   0.10345119 
26610000   0.10167645 
26620000   0.10194387 
26630000   0.10300812 
26640000  0.097092871 
26650000  0.098633723 
26660000   0.10463546 
26670000   0.10151026 
26680000    0.1053948 
26690000   0.11169499 
26700000  0.099349427 
26710000   0.10257711 
26720000    0.1085314 
26730000  0.093830419 
26740000  0.099213841 
26750000  0.098701411 
26760000   0.10143577 
26770000   0.10776874 
26780000  0.096402041 
26790000  0.099998904 
26800000  0.096094603 
26810000   0.10010159 
26820000  0.096921266 
26830000  0.089864746 
26840000   0.10648927 
26850000    0.1038549 
26860000  0.094191806 
26870000   0.10524152 
26880000  0.086784836 
26890000   0.10317451 
26900000  0.097936058 
26910000  0.098826575 
26920000   0.11068599 
26930000   0.10058147 
26940000   0.10160914 
26950000   0.10247165 
26960000   0.08876699 
26970000  0.099243527 
26980000   0.10181341 
26990000  0.098497823 
27000000  0.098356414 
27010000   0.10613723 
27020000  0.093894562 
27030000  0.096415792 
27040000   0.10580515 
27050000    0.1126807 
27060000  0.099982949 
27070000   0.10577054 
27080000  0.097685204 
27090000  0.092864798 
27100000   0.10332534 
27110000   0.10358582 
27120000   0.09323737 
27130000    0.0958585 
27140000  0.091500892 
27150000  0.094333636 
27160000   0.10326988 
27170000   0.10309215 
27180000  0.095107555 
27190000  0.093103835 
27200000   0.10184351 
27210000  0.093443315 
27220000   0.10375521 
27230000   0.11045875 
27240000   0.10158189 
27250000   0.10108274 
27260000  0.095901872 
27270000   0.10162475 
27280000   0.10455487 
27290000   0.10684051 
27300000  0.096209283 
27310000     0.100751 
27320000   0.10178902 
27330000  0.096224111 
27340000   0.10555237 
27350000   0.11253138 
27360000  0.092200453 
27370000   0.10062035 
27380000  0.098020153 
27390000  0.096340807 
27400000  0.098764968 
27410000  0.095430446 
27420000  0.096034616 
27430000   0.10938039 
27440000  0.092649195 
27450000  0.099957546 
27460000   0.10915042 
27470000  0.098073397 
27480000  0.095502501 
27490000  0.097435733 
27500000  0.098754749 
27510000   0.10203201 
27520000   0.10201032 
27530000  0.096573378 
27540000    0.1014167 
27550000   0.09258222 
27560000   0.10411717 
27570000   0.09275363 
27580000  0.094484576 
27590000   0.10907663 
27600000  0.096344935 
27610000   0.10080599 
27620000  0.096960817 
27630000  0.097777071 
27640000  0.099773912 
27650000   0.10694673 
27660000   0.10212375 
27670000  0.093084696 
27680000    0.1008585 
27690000   0.10046722 
27700000    0.1013403 
27710000   0.10498923 
27720000   0.10147426 
27730000  0.096846295 
27740000  0.094942987 
27750000   0.10556468 
27760000   0.09863206 
27770000  0.098711463 
27780000   0.10528819 
27790000  0.098318913 
27800000   0.10073515 
27810000  0.092212272 
27820000   0.10216192 
27830000  0.099356643 
27840000  0.095190134 
27850000   0.10597332 
27860000   0.09339702 
27870000   0.09802652 
27880000   0.10217194 
27890000  0.099036612 
27900000  0.091959024 
27910000  0.098620529 
27920000   0.10581649 
27930000   0.10088199 
27940000   0.10723072 
27950000    0.1038709 
27960000   0.09854835 
27970000   0.11498908 
27980000   0.11094619 
27990000  0.099432745 
28000000    0.1050489 
28010000  0.093684244 
28020000  0.094825371 
28030000   0.10435054 
28040000   0.10346933 
28050000   0.09732187 
28060000   0.10426904 
28070000   0.10875635 
28080000   0.10645566 
28090000   0.10206642 
28100000  0.097262471 
28110000  0.097899438 
28120000  0.094902666 
28130000  0.093082609 
28140000   0.10528698 
28150000   0.10520178 
28160000   0.10161581 
28170000  0.094780856 
28180000     0.101553 
28190000   0.10451334 
28200000  0.099917868 
28210000   0.10388052 
28220000  0.095830344 
28230000  0.097593058 
28240000  0.095828137 
28250000  0.094204843 
28260000   0.10195018 
28270000  0.094755461 
28280000   0.10330589 
28290000   0.08745584 
28300000  0.095501449 
28310000  0.097091254 
28320000   0.10741603 
28330000  0.092516835 
28340000   0.10080195 
28350000  0.092904839 
28360000   0.10260735 
28370000   0.10109126 
28380000  0.098076408 
28390000   0.10420478 
28400000   0.10185575 
28410000   0.10774166 
28420000  0.099553007 
28430000   0.10054358 
28440000  0.091933212 
28450000     0.105457 
28460000   0.10158429 
28470000  0.098515963 
28480000   0.10347616 
28490000   0.10421278 
28500000  0.091706326 
28510000  0.099322983 
28520000  0.099186795 
28530000  0.095258545 
28540000  0.098191827 
28550000  0.093197902 
28560000   0.10015803 
28570000  0.092230108 
28580000  0.099479645 
28590000  0.095334563 
28600000  0.095080691 
28610000  0.095884307 
28620000   0.10090463 
28630000     0.100382 
28640000  0.095564614 
28650000   0.10372149 
28660000    0.1013479 
28670000   0.10036032 
28680000  0.095319851 
28690000  0.096301265 
28700000   0.10103434 
28710000   0.10128458 
28720000     0.100825 
28730000  0.099675967 
28740000  0.089809907 
28750000  0.092400029 
28760000   0.10292691 
28770000   0.10314079 
28780000   0.10034076 
28790000   0.10854915 
28800000  0.095013417 
28810000   0.09463912 
28820000    0.1010097 
28830000   0.10161209 
28840000   0.10017701 
28850000   0.10039737 
28860000  0.096457152 
28870000   0.10140678 
28880000   0.10536825 
28890000   0.10876229 
28900000  0.099036661 
28910000  0.097428797 
28920000  0.097235778 
28930000   0.10236686 
28940000   0.10185828 
28950000   0.11258128 
28960000   0.10026422 
28970000    0.1037626 
28980000   0.10439206 
28990000  0.089348825 
29000000    0.1017716 
29010000   0.09774763 
29020000  0.099504511 
29030000    0.1092644 
29040000   0.09581108 
29050000  0.099429294 
29060000   0.10066973 
29070000  0.098771054 
29080000   0.11317829 
29090000  0.092453839 
29100000  0.097896026 
29110000  0.098533144 
29120000  0.095453808 
29130000   0.10808185 
29140000  0.098383157 
29150000   0.10664124 
29160000   0.11005712 
29170000   0.10091551 
29180000   0.10679715 
29190000  0.097230719 
29200000   0.10748963 
29210000   0.08897862 
29220000  0.096914606 
29230000   0.10230584 
29240000   0.10334483 
29250000  0.094359142 
29260000   0.10239571 
29270000   0.10168693 
29280000   0.10782685 
29290000   0.09381961 
29300000  0.089625681 
29310000  0.097236208 
29320000   0.10073992 
29330000   0.10103597 
29340000  0.098264354 
29350000   0.10250649 
29360000   0.10760065 
29370000   0.09976535 
29380000   0.09694461 
29390000  0.098502616 
29400000   0.10635617 
29410000  0.093693436 
29420000  0.098891601 
29430000   0.10005609 
29440000   0.10507692 
29450000   0.10261618 
29460000   0.10444756 
29470000  0.096277636 
29480000   0.10175067 
29490000   0.10461683 
29500000   0.10010269 
29510000     0.102858 
29520000   0.10456218 
29530000   0.09518835 
29540000   0.10610994 
29550000   0.09965111 
29560000  0.091435098 
29570000  0.091101084 
29580000  0.091234506 
29590000   0.10505895 
29600000   0.10395079 
29610000  0.099294421 
29620000  0.099122419 
29630000  0.095069037 
29640000   0.10766213 
29650000   0.10178803 
29660000  0.098809925 
29670000   0.09535009 
29680000  0.092039645 
29690000    0.1024061 
29700000  0.092548586 
29710000   0.09456751 
29720000   0.10500435 
29730000  0.097508912 
29740000  0.097248621 
29750000   0.10254758 
29760000   0.10868559 
29770000   0.10274079 
29780000   0.10145465 
29790000   0.10455665 
29800000   0.10891704 
29810000   0.10163209 
29820000  0.097720106 
29830000  0.094011961 
29840000   0.10221699 
29850000   0.10054345 
29860000   0.09070341 
29870000  0.096304928 
29880000   0.10505076 
29890000   0.10367367 
29900000   0.10114248 
29910000   0.10402631 
29920000   0.10606154 
29930000   0.10252408 
29940000   0.11447122 
29950000  0.096060652 
29960000  0.099600405 
29970000   0.10360375 
29980000   0.10190284 
29990000  0.095529157 
30000000  0.090139006 
30010000  0.099815382 
30020000   0.10364871 
30030000  0.098567378 
30040000   0.10317713 
30050000   0.10823226 
30060000   0.10511072 
30070000   0.10143503 
30080000  0.096542751 
30090000   0.10128564 
30100000   0.10559517 
30110000  0.093227603 
30120000  0.094834698 
30130000   0.10728741 
30140000   0.10974739 
30150000   0.10707464 
30160000   0.10527601 
30170000   0.10137577 
30180000  0.093779407 
30190000  0.097603174 
30200000   0.10425958 
30210000  0.095931701 
30220000  0.093737765 
30230000  0.096492946 
30240000  0.094119347 
30250000   0.10194783 
30260000  0.097948886 
30270000  0.097117637 
30280000  0.090823451 
30290000  0.094050542 
30300000  0.096680486 
30310000  0.094793085 
30320000  0.097253428 
30330000   0.10053062 
30340000   0.10101386 
30350000  0.092072385 
30360000   0.11287754 
30370000  0.099417137 
30380000   0.10071615 
30390000  0.099617181 
30400000  0.094799498 
30410000   0.10152583 
30420000  0.099122665 
30430000   0.10100104 
30440000   0.10047088 
30450000   0.10007686 
30460000   0.10179819 
30470000   0.10458795 
30480000   0.10689042 
30490000  0.094959866 
30500000  0.096923333 
30510000  0.084713296 
30520000  0.095226087 
30530000  0.099491061 
30540000   0.10768389 
30550000   0.10748867 
30560000   0.10622301 
30570000  0.094469142 
30580000   0.10074933 
30590000   0.10225279 
30600000  0.092767046 
30610000  0.096418669 
30620000  0.098384757 
30630000  0.098560437 
30640000   0.10289488 
30650000  0.087109264 
30660000   0.11042164 
30670000  0.099037245 
30680000  0.097267596 
30690000   0.10977128 
30700000   0.10170293 
30710000   0.10720606 
30720000  0.097107554 
30730000  0.092278936 
30740000   0.10047008 
30750000   0.10141839 
30760000  0.094957955 
30770000   0.10418978 
30780000   0.10997419 
30790000  0.099240549 
30800000  0.098207585 
30810000  0.096594954 
30820000   0.11268214 
30830000  0.096052034 
30840000  0.098627866 
30850000  0.093608927 
30860000  0.098738253 
30870000  0.097113771 
30880000   0.10089454 
30890000   0.10530699 
30900000   0.10882163 
30910000   0.10011818 
30920000   0.10433949 
30930000  0.097914975 
30940000   0.10424912 
30950000   0.10775796 
[...]
848930000   0.11618681 
848940000   0.10670855 
848950000  0.097076576 
848960000   0.10975025 
848970000   0.10385182 
848980000   0.10610378 
848990000   0.10167763 
849000000  0.098271441 
849010000   0.10469442 
849020000   0.08853507 
849030000     0.102669 
849040000   0.10778834 
849050000   0.09404419 
849060000   0.10628753 
849070000  0.090717408 
849080000   0.09928939 
849090000  0.094530268 
849100000  0.094506844 
849110000   0.10359965 
849120000    0.1017504 
849130000   0.10893016 
849140000  0.095977674 
849150000   0.10552628 
849160000  0.099319873 
849170000  0.097903797 
849180000  0.099312009 
849190000  0.099670028 
849200000  0.093322114 
849210000  0.094742972 
849220000   0.10413936 
849230000  0.099547403 
849240000  0.095882597 
849250000   0.10077718 
849260000  0.098685052 
849270000   0.10660893 
849280000  0.096283966 
849290000  0.094789762 
849300000  0.093908503 
849310000   0.10467955 
849320000   0.10270947 
849330000  0.091906028 
849340000  0.098218784 
849350000   0.11601545 
849360000   0.10488308 
849370000   0.10397411 
849380000   0.10913034 
849390000    0.1042718 
849400000  0.095734729 
849410000   0.10418581 
849420000   0.10112194 
849430000  0.093934635 
849440000  0.091676487 
849450000  0.093625393 
849460000   0.11628578 
849470000   0.10137686 
849480000   0.10162063 
849490000   0.10368942 
849500000   0.10519414 
849510000  0.096153522 
849520000  0.095214609 
849530000   0.10081733 
849540000  0.099025825 
849550000    0.1027707 
849560000   0.10499438 
849570000   0.10637517 
849580000   0.10049813 
849590000  0.099113199 
849600000   0.10380874 
849610000  0.097242717 
849620000    0.1010283 
849630000  0.097511638 
849640000   0.10738636 
849650000   0.10295352 
849660000   0.10218588 
849670000   0.10324519 
849680000  0.099130805 
849690000   0.10014609 
849700000   0.10204532 
849710000   0.10330445 
849720000   0.10123237 
849730000  0.092792635 
849740000  0.094540273 
849750000   0.10483248 
849760000  0.096135286 
849770000   0.10312001 
849780000    0.1073025 
849790000   0.10561829 
849800000    0.1049226 
849810000  0.091959307 
849820000   0.11092421 
849830000     0.103498 
849840000  0.096790538 
849850000  0.096857816 
849860000  0.099238694 
849870000   0.10533299 
849880000   0.10248697 
849890000  0.098142561 
849900000   0.10216515 
849910000   0.10877719 
849920000   0.10346803 
849930000  0.096172872 
849940000   0.10661915 
849950000   0.10182048 
849960000  0.095238651 
849970000  0.097534456 
849980000  0.093519455 
849990000    0.1014557 
850000000   0.10713393 
850010000  0.088199168 
850020000   0.10081417 
850030000   0.10413295 
850040000   0.10146454 
850050000   0.10315607 
850060000  0.099355263 
850070000   0.10178505 
850080000   0.10069096 
850090000  0.097925736 
850100000  0.098051614 
850110000  0.090789542 
850120000  0.095778801 
850130000  0.095223451 
850140000  0.097116081 
850150000   0.10069836 
850160000  0.090438667 
850170000   0.10051065 
850180000  0.089859917 
850190000  0.095393597 
850200000   0.10770423 
850210000   0.10331643 
850220000   0.10463168 
850230000   0.10016451 
850240000  0.095057047 
850250000  0.092085523 
850260000   0.10217348 
850270000   0.10513704 
850280000   0.10603847 
850290000   0.10590015 
850300000  0.098836178 
850310000   0.10558016 
850320000   0.10394723 
850330000  0.095886804 
850340000    0.1109158 
850350000  0.098145573 
850360000   0.10383157 
850370000  0.098865699 
850380000   0.11047473 
850390000  0.094038384 
850400000  0.098504579 
850410000  0.098225224 
850420000  0.098381969 
850430000  0.092784902 
850440000  0.098128336 
850450000  0.094665876 
850460000   0.10346961 
850470000  0.098469502 
850480000   0.10456967 
850490000     0.100711 
850500000  0.097415504 
850510000  0.095437156 
850520000   0.10054642 
850530000   0.10435568 
850540000    0.1011409 
850550000   0.10688427 
850560000  0.099626149 
850570000   0.11040217 
850580000  0.098800108 
850590000  0.094037179 
850600000  0.097312683 
850610000  0.098254504 
850620000  0.093548122 
850630000  0.096502864 
850640000    0.1081373 
850650000  0.090800249 
850660000   0.10381932 
850670000   0.10039398 
850680000  0.092666124 
850690000    0.1014081 
850700000   0.10559403 
850710000   0.10375623 
850720000   0.10450016 
850730000   0.10104016 
850740000  0.092172682 
850750000   0.10019006 
850760000     0.101583 
850770000   0.09694007 
850780000   0.11478532 
850790000   0.10154938 
850800000   0.10119505 
850810000   0.10175009 
850820000   0.10753089 
850830000  0.096266712 
850840000   0.10296084 
850850000   0.10613258 
850860000   0.10270476 
850870000  0.097041493 
850880000  0.098872849 
850890000   0.10903152 
850900000    0.1063391 
850910000   0.10257628 
850920000   0.10234585 
850930000   0.10748426 
850940000   0.10234078 
850950000   0.10608847 
850960000  0.089992411 
850970000  0.098788379 
850980000  0.089881726 
850990000   0.09769192 
851000000   0.11110263 
851010000   0.10319075 
851020000    0.0948071 
851030000   0.10143559 
851040000   0.10310189 
851050000  0.093008038 
851060000  0.099635985 
851070000  0.097040544 
851080000  0.099517667 
851090000   0.10459338 
851100000   0.11066094 
851110000  0.093376121 
851120000   0.09924676 
851130000   0.10378668 
851140000   0.10037527 
851150000   0.10502115 
851160000  0.099469808 
851170000   0.10918048 
851180000  0.095075753 
851190000  0.098514863 
851200000  0.094747376 
851210000  0.088826212 
851220000   0.10639022 
851230000   0.10220588 
851240000  0.093049125 
851250000  0.095125932 
851260000  0.091360109 
851270000   0.10692194 
851280000  0.097304839 
851290000    0.1010825 
851300000   0.10832235 
851310000    0.1062298 
851320000      0.10795 
851330000   0.10261435 
851340000  0.095509368 
851350000  0.090176436 
851360000  0.096738422 
851370000  0.098087353 
851380000   0.10089701 
851390000  0.099653049 
851400000   0.10708707 
851410000   0.10386655 
851420000  0.092548579 
851430000  0.096144414 
851440000   0.10612672 
851450000   0.10561618 
851460000  0.097755166 
851470000   0.10384102 
851480000  0.098398228 
851490000   0.10193388 
851500000   0.11012411 
851510000  0.097859454 
851520000  0.096654329 
851530000  0.092901455 
851540000   0.10443722 
851550000  0.099398448 
851560000   0.10167249 
851570000  0.098623722 
851580000   0.10834405 
851590000   0.10330805 
851600000  0.096405359 
851610000   0.10324377 
851620000  0.095087448 
851630000   0.09758417 
851640000  0.093528398 
851650000   0.10335883 
851660000   0.10245899 
851670000  0.097610663 
851680000   0.10256182 
851690000  0.098488866 
851700000   0.11179518 
851710000  0.092299772 
851720000  0.097266238 
851730000  0.096171281 
851740000   0.10849661 
851750000  0.097807512 
851760000  0.094344717 
851770000   0.10161004 
851780000  0.099841899 
851790000   0.10376991 
851800000  0.095384254 
851810000   0.10596532 
851820000  0.098237678 
851830000  0.097753665 
851840000  0.091082819 
851850000   0.11191093 
851860000  0.099899328 
851870000  0.099342378 
851880000   0.10777254 
851890000  0.098605658 
851900000   0.10730193 
851910000   0.10783973 
851920000   0.10129621 
851930000  0.093277975 
851940000   0.10164773 
851950000  0.097036757 
851960000  0.096708426 
851970000   0.10291819 
851980000    0.1060343 
851990000   0.10160041 
852000000  0.095585275 
852010000  0.099051006 
852020000   0.10551424 
852030000   0.10407422 
852040000  0.099465696 
852050000  0.099216612 
852060000   0.10864883 
852070000   0.11558573 
852080000   0.10284716 
852090000  0.099077818 
852100000   0.10271583 
852110000  0.095074971 
852120000  0.092755763 
852130000   0.10239199 
852140000   0.09596971 
852150000   0.10257165 
852160000   0.11128675 
852170000   0.10465387 
852180000   0.10146084 
852190000  0.099579743 
852200000   0.10635942 
852210000  0.098165984 
852220000   0.10030841 
852230000   0.10521127 
852240000   0.10159452 
852250000  0.098465372 
852260000   0.10630755 
852270000  0.095508642 
852280000  0.091984156 
852290000  0.095226733 
852300000   0.10460706 
852310000  0.096101779 
852320000   0.10129675 
852330000   0.10124236 
852340000   0.09801163 
852350000   0.10134358 
852360000   0.10904288 
852370000  0.094009681 
852380000  0.099473265 
852390000  0.099845918 
852400000  0.096015352 
852410000   0.10034298 
852420000   0.11458978 
852430000  0.098410625 
852440000  0.098982895 
852450000   0.08892927 
852460000   0.10312711 
852470000   0.10312447 
852480000   0.09543234 
852490000  0.096162737 
852500000   0.10139063 
852510000  0.095665947 
852520000  0.098190371 
852530000   0.10079502 
852540000   0.10081126 
852550000   0.09998662 
852560000   0.11372058 
852570000   0.10060886 
852580000   0.10041527 
852590000  0.094263802 
852600000  0.097711223 
852610000   0.10618976 
852620000  0.095325897 
852630000   0.10008305 
852640000  0.094246018 
852650000  0.097085883 
852660000   0.10038068 
852670000   0.11325702 
852680000   0.10164378 
852690000   0.10353317 
852700000   0.10096756 
852710000  0.098793301 
852720000  0.085382485 
852730000   0.10085258 
852740000  0.086880155 
852750000   0.10787738 
852760000  0.097715788 
852770000   0.10297405 
852780000  0.090110776 
852790000  0.096859062 
852800000   0.10278797 
852810000  0.098742972 
852820000   0.10251257 
852830000   0.10254637 
852840000  0.094675334 
852850000   0.10672613 
852860000    0.1063287 
852870000  0.093515164 
852880000  0.098139451 
852890000   0.09985848 
852900000  0.093939559 
852910000  0.093725058 
852920000   0.10262559 
852930000  0.094308181 
852940000  0.099277285 
852950000  0.097915871 
852960000  0.096666192 
852970000  0.096606409 
852980000  0.099485278 
852990000   0.10242801 
853000000  0.096257422 
853010000  0.096096524 
853020000  0.098349595 
853030000   0.10161811 
853040000  0.091263388 
853050000   0.10826669 
853060000  0.092055192 
853070000  0.099187878 
853080000   0.10481503 
853090000   0.10411827 
853100000   0.10019453 
853110000   0.10519407 
853120000  0.094470807 
853130000  0.086480548 
853140000    0.1171976 
853150000  0.097181555 
853160000  0.098943365 
853170000   0.10688983 
853180000  0.090899631 
853190000   0.10093602 
853200000  0.096031859 
853210000  0.093350818 
853220000   0.10783081 
853230000  0.096937443 
853240000  0.096020674 
853250000  0.098958001 
853260000  0.093274266 
853270000   0.10193332 
853280000    0.1140679 
853290000   0.10710823 
853300000   0.10419618 
853310000   0.10221657 
853320000  0.098786975 
853330000   0.10049156 
853340000    0.1033719 
853350000  0.092816497 
853360000  0.099252731 
853370000  0.097899671 
853380000  0.089828653 
853390000   0.10158645 
853400000  0.094970973 
853410000  0.091168464 
853420000   0.10334938 
853430000  0.099364457 
853440000  0.093007051 
853450000   0.10111913 
853460000  0.086165209 
853470000  0.093997048 
853480000  0.098107216 
853490000  0.097250907 
853500000   0.10654177 
853510000   0.10418559 
853520000   0.10659131 
853530000   0.10062104 
853540000  0.099408906 
853550000   0.10790476 
853560000   0.10368476 
853570000  0.098326444 
853580000   0.10552841 
853590000  0.099918489 
853600000  0.099160592 
853610000   0.10918026 
853620000   0.10749924 
853630000   0.10732209 
853640000   0.10935147 
853650000   0.10204023 
853660000  0.095638522 
853670000   0.10044524 
853680000   0.10108424 
853690000  0.092916194 
853700000  0.095907839 
853710000   0.11477006 
853720000  0.094171873 
853730000  0.095163883 
853740000   0.10528884 
853750000   0.10987774 
853760000   0.10035801 
853770000   0.10403326 
853780000  0.096737365 
853790000   0.10448656 
853800000   0.10343656 
853810000   0.10612588 
853820000  0.095205586 
853830000  0.096614919 
853840000   0.10305702 
853850000    0.1038525 
853860000  0.094442481 
853870000   0.10281532 
853880000   0.09363834 
853890000  0.098054431 
853900000  0.096197219 
853910000     0.105177 
853920000   0.10735083 
853930000   0.10510055 
853940000  0.092760514 
853950000  0.098949693 
853960000  0.095313199 
853970000   0.10310548 
853980000  0.094956973 
853990000   0.10303713 
854000000   0.10013367 
854010000   0.10054725 
854020000  0.097383265 
854030000  0.097866174 
854040000   0.10034714 
854050000   0.10435766 
854060000  0.092569501 
854070000   0.10112082 
854080000    0.1001459 
854090000   0.08803799 
854100000  0.095191152 
854110000   0.10309769 
854120000  0.097230771 
854130000  0.083140399 
854140000    0.1038204 
854150000   0.10734886 
854160000    0.1036538 
854170000  0.099063629 
854180000  0.094371871 
854190000   0.10051368 
854200000   0.10181986 
854210000  0.093804956 
854220000   0.11389975 
854230000   0.10059317 
854240000  0.098443024 
854250000   0.10006355 
854260000  0.089914979 
854270000    0.1005389 
854280000  0.099144751 
854290000   0.10049123 
854300000    0.1023046 
854310000  0.097085533 
854320000   0.10387558 
854330000  0.095156602 
854340000   0.10158826 
854350000    0.1016291 
854360000   0.10375061 
854370000   0.09395437 
854380000    0.1003144 
854390000   0.11003394 
854400000   0.10083551 
854410000    0.1073848 
854420000  0.098248443 
854430000    0.1046513 
854440000   0.10206782 
854450000   0.09162206 
854460000   0.10280313 
854470000   0.11136001 
854480000   0.10183278 
854490000   0.10363664 
854500000   0.10246518 
854510000   0.10708061 
854520000    0.1062392 
854530000  0.096271231 
854540000   0.10067782 
854550000  0.096711557 
854560000  0.094215099 
854570000   0.10588158 
854580000   0.10346045 
854590000  0.098663648 
854600000   0.10063292 
854610000  0.095121046 
854620000  0.093812533 
854630000   0.10697804 
854640000   0.10479625 
854650000   0.10042322 
854660000  0.099302063 
854670000  0.097165058 
854680000   0.10321777 
854690000   0.10067578 
854700000   0.10349378 
854710000   0.10975046 
854720000  0.089475448 
854730000  0.096582891 
854740000  0.097103733 
854750000   0.10442509 
854760000  0.096170199 
854770000   0.10220653 
854780000   0.10286321 
854790000    0.1001448 
854800000   0.10966299 
854810000    0.1022235 
854820000  0.097748535 
854830000   0.10011441 
854840000  0.094355371 
854850000  0.098836043 
854860000  0.099722523 
854870000  0.091806849 
854880000  0.099212243 
854890000  0.092314473 
854900000   0.10380541 
854910000   0.10734751 
854920000   0.10142193 
854930000  0.089796922 
854940000  0.095945557 
854950000  0.098482946 
854960000  0.096005494 
854970000  0.099015118 
854980000   0.10557883 
854990000   0.10139531 
855000000   0.10478636 
855010000  0.091602014 
855020000  0.096808087 
855030000   0.10636134 
855040000  0.091356654 
855050000   0.10311552 
855060000  0.098569795 
855070000   0.10029104 
855080000   0.10324854 
855090000   0.10370372 
855100000   0.10409216 
855110000   0.10498698 
855120000  0.097823314 
855130000   0.09739432 
855140000   0.11061135 
855150000   0.10001108 
855160000  0.098522869 
855170000   0.10573469 
855180000   0.10752524 
855190000   0.10501162 
855200000  0.096588423 
855210000   0.10524813 
855220000   0.10519948 
855230000   0.10095975 
855240000  0.096504466 
855250000   0.10521183 
855260000   0.09613553 
855270000   0.09754275 
855280000  0.094335461 
855290000   0.11530361 
855300000  0.092216058 
855310000   0.10818711 
855320000   0.10685227 
855330000  0.094767699 
855340000   0.10642161 
855350000   0.10126682 
855360000  0.097601146 
855370000  0.097692758 
855380000  0.097088257 
855390000  0.099653111 
855400000   0.10133182 
855410000   0.10174538 
855420000  0.093997875 
855430000   0.10706491 
855440000  0.096439607 
855450000  0.092273608 
855460000   0.10393604 
855470000   0.10491584 
855480000  0.095151014 
855490000  0.099256396 
855500000   0.10247437 
855510000  0.096722497 
855520000   0.10076704 
855530000  0.093946452 
855540000   0.10127406 
855550000   0.10687862 
855560000  0.099566591 
855570000   0.10252749 
855580000  0.084412951 
855590000  0.095230561 
855600000   0.11033496 
855610000   0.10361896 
855620000   0.10046033 
855630000  0.095010627 
855640000   0.10636264 
855650000  0.097403884 
855660000   0.10223293 
855670000  0.099166719 
855680000   0.10280565 
855690000  0.097562833 
855700000  0.098511028 
855710000   0.10305689 
855720000   0.10852662 
855730000  0.097650976 
855740000   0.10288669 
855750000   0.10682834 
855760000  0.093999572 
855770000    0.1060378 
855780000   0.10669359 
855790000   0.10289985 
855800000   0.08832485 
855810000   0.10158147 
855820000  0.098457413 
855830000   0.09970249 
855840000   0.10622166 
855850000   0.10969718 
855860000   0.10039797 
855870000   0.10629523 
855880000    0.1088382 
855890000   0.10540021 
855900000   0.10674548 
855910000   0.10120898 
855920000   0.10133144 
855930000  0.095554798 
855940000   0.10782564 
855950000    0.0924463 
855960000  0.098202045 
855970000   0.10283453 
855980000  0.089138518 
855990000  0.088253246 
856000000  0.094587271 
856010000   0.10267329 
856020000   0.11005836 
856030000  0.098419128 
856040000  0.093952635 
856050000  0.096753006 
856060000   0.10574864 
856070000   0.11102667 
856080000   0.10112185 
856090000   0.10211823 
856100000  0.097414042 
856110000  0.097232309 
856120000   0.10070402 
856130000   0.10294853 
856140000    0.1075454 
856150000   0.10098855 
856160000   0.10632833 
856170000  0.098498859 
856180000  0.098302255 
856190000    0.1019528 
856200000   0.10143249 
856210000   0.10600766 
856220000   0.10147105 
856230000   0.10329885 
856240000   0.10307079 
856250000   0.10676681 
856260000   0.10222161 
856270000   0.10636347 
856280000    0.0976168 
856290000  0.099262578 
856300000    0.1025854 
856310000   0.10382373 
856320000   0.10374717 
856330000   0.10970734 
856340000   0.10712042 
856350000   0.10022555 
856360000   0.10177368 
856370000  0.097292638 
856380000  0.099776007 
856390000   0.10151671 
856400000  0.099410846 
856410000  0.096587266 
856420000  0.098575582 
856430000    0.1008521 
856440000  0.091008815 
856450000  0.093877337 
856460000   0.10272964 
856470000   0.10359057 
856480000  0.097695875 
856490000  0.096448697 
856500000  0.095025038 
856510000   0.10276481 
856520000   0.10769888 
856530000   0.09574785 
856540000  0.087359015 
856550000   0.10568402 
856560000  0.096634051 
856570000  0.099371013 
856580000  0.096750525 
856590000    0.1058742 
856600000   0.09797406 
856610000   0.10191476 
856620000  0.088990319 
856630000  0.096628235 
856640000     0.104426 
856650000  0.096050345 
856660000   0.10161171 
856670000   0.10578363 
856680000  0.090656635 
856690000   0.10346524 
856700000   0.10489797 
856710000   0.10276502 
856720000  0.096989035 
856730000   0.10416091 
856740000   0.10098915 
856750000   0.10178446 
856760000   0.10461409 
856770000  0.097249032 
856780000   0.09850418 
856790000   0.10044745 
856800000   0.10095685 
856810000   0.10183292 
856820000   0.09996887 
856830000   0.10659792 
856840000   0.10267643 
856850000  0.097946279 
856860000   0.10771968 
856870000  0.098504403 
856880000   0.10038342 
856890000   0.10352949 
856900000   0.09791343 
856910000   0.09704756 
856920000  0.099582504 
856930000   0.09827413 
856940000  0.098166192 
856950000   0.11074163 
856960000  0.093432549 
856970000   0.09331507 
856980000   0.10710043 
856990000  0.099050236 
857000000  0.098345564 
857010000  0.091547802 
857020000  0.090201851 
857030000  0.099983663 
857040000   0.10562183 
857050000    0.1124361 
857060000   0.10201915 
857070000  0.094141523 
857080000  0.095104551 
857090000  0.091605709 
857100000   0.10035782 
857110000   0.10123014 
857120000   0.10068047 
857130000   0.10618892 
857140000  0.094988704 
857150000  0.098324583 
857160000  0.092568028 
857170000   0.10169786 
857180000   0.10443059 
857190000   0.10815406 
857200000  0.092923474 
857210000     0.101885 
857220000   0.10128108 
857230000   0.10273368 
857240000   0.10053365 
857250000   0.