LAMMPS (29 Sep 2021 - Update 2)
WARNING: Write_data command requires newton on to preserve 3'->5' bond polarity (../atom_vec_oxdna.cpp:52)
WARNING: Atom style hybrid defines both, per-type and per-atom masses; both must be set, but only per-atom masses will be used (../atom_vec_hybrid.cpp:157)
Reading data file ...
  orthogonal box = (0.0000000 0.0000000 0.0000000) to (40.000000 40.000000 40.000000)
  1 by 1 by 1 MPI processor grid
  reading atoms ...
  241 atoms
  reading velocities ...
  241 velocities
  241 ellipsoids
  scanning bonds ...
  2 = max bonds/atom
  reading bonds ...
  236 bonds
Finding 1-2 1-3 1-4 neighbors ...
  special bond factors lj:    0        0        0       
  special bond factors coul:  0        0        0       
     2 = max # of 1-2 neighbors
     2 = max # of 1-3 neighbors
     4 = max # of 1-4 neighbors
     6 = max # of special neighbors
  special bonds CPU = 0.000 seconds
  read_data CPU = 0.009 seconds
Setting atom values ...
  241 settings made for mass
241 atoms in group all
Finding 1-2 1-3 1-4 neighbors ...
  special bond factors lj:    0        1        1       
  special bond factors coul:  0        0        0       
     2 = max # of 1-2 neighbors
     2 = max # of 1-3 neighbors
     4 = max # of 1-4 neighbors
     6 = max # of special neighbors
  special bonds CPU = 0.000 seconds
Neighbor list info ...
  update every 1 steps, delay 0 steps, check yes
  max neighbors/atom: 2000, page size: 100000
  master list distance cutoff = 6.2019411
  ghost atom cutoff = 6.2019411
  binsize = 3.1009705, bins = 13 13 13
  5 neighbor lists, perpetual/occasional/extra = 5 0 0
  (1) pair oxdna2/excv, perpetual
      attributes: half, newton off
      pair build: half/bin/newtoff
      stencil: full/bin/3d
      bin: standard
  (2) pair oxdna2/hbond, perpetual, copy from (1)
      attributes: half, newton off
      pair build: copy
      stencil: none
      bin: none
  (3) pair oxdna2/xstk, perpetual, copy from (1)
      attributes: half, newton off
      pair build: copy
      stencil: none
      bin: none
  (4) pair oxdna2/coaxstk, perpetual, copy from (1)
      attributes: half, newton off
      pair build: copy
      stencil: none
      bin: none
  (5) pair oxdna2/dh, perpetual, copy from (1)
      attributes: half, newton off
      pair build: copy
      stencil: none
      bin: none
Setting up Verlet run ...
  Unit style    : lj
  Current step  : 0
  Time step     : 0.001
WARNING: FENE bond too long: 0 28 27 1.1968392638154084 (../bond_oxdna_fene.cpp:209)
WARNING: FENE bond too long: 0 30 29 1.452169490292389 (../bond_oxdna_fene.cpp:209)
WARNING: FENE bond too long: 0 76 75 1.0200199265348373 (../bond_oxdna_fene.cpp:209)
WARNING: FENE bond too long: 0 78 77 1.5136530008522417 (../bond_oxdna_fene.cpp:209)
WARNING: FENE bond too long: 0 125 124 1.4284085498974919 (../bond_oxdna_fene.cpp:209)
WARNING: FENE bond too long: 0 124 125 1.428408549897493 (../bond_oxdna_fene.cpp:209)
WARNING: FENE bond too long: 0 173 172 1.2297716667852723 (../bond_oxdna_fene.cpp:209)
WARNING: FENE bond too long: 0 172 173 1.2297716667852727 (../bond_oxdna_fene.cpp:209)
WARNING: FENE bond too long: 0 220 219 1.0510436230822118 (../bond_oxdna_fene.cpp:209)
WARNING: FENE bond too long: 0 219 220 1.0510436230822127 (../bond_oxdna_fene.cpp:209)
WARNING: FENE bond too long: 0 222 221 1.402855444565693 (../bond_oxdna_fene.cpp:209)
Per MPI rank memory allocation (min/avg/max) = 9.697 | 9.697 | 9.697 Mbytes
Step Temp 
       0            0 
WARNING: FENE bond too long: 1 28 27 1.196740081849777 (../bond_oxdna_fene.cpp:209)
WARNING: FENE bond too long: 1 30 29 1.452209590452602 (../bond_oxdna_fene.cpp:209)
WARNING: FENE bond too long: 1 76 75 1.01997534033465 (../bond_oxdna_fene.cpp:209)
WARNING: FENE bond too long: 1 78 77 1.513580733885937 (../bond_oxdna_fene.cpp:209)
WARNING: FENE bond too long: 1 125 124 1.4280353193852988 (../bond_oxdna_fene.cpp:209)
WARNING: FENE bond too long: 1 124 125 1.4280353193853002 (../bond_oxdna_fene.cpp:209)
WARNING: FENE bond too long: 1 173 172 1.229899213745246 (../bond_oxdna_fene.cpp:209)
WARNING: FENE bond too long: 1 172 173 1.22989921374525 (../bond_oxdna_fene.cpp:209)
WARNING: FENE bond too long: 1 220 219 1.050949193690726 (../bond_oxdna_fene.cpp:209)
WARNING: FENE bond too long: 1 219 220 1.0509491936907225 (../bond_oxdna_fene.cpp:209)
WARNING: FENE bond too long: 1 222 221 1.4026957481831424 (../bond_oxdna_fene.cpp:209)
WARNING: FENE bond too long: 2 28 27 1.1960295943849502 (../bond_oxdna_fene.cpp:209)
WARNING: FENE bond too long: 2 30 29 1.4515335242119343 (../bond_oxdna_fene.cpp:209)
WARNING: FENE bond too long: 2 76 75 1.0196064961274545 (../bond_oxdna_fene.cpp:209)
WARNING: FENE bond too long: 2 78 77 1.5132548254776965 (../bond_oxdna_fene.cpp:209)
WARNING: FENE bond too long: 2 125 124 1.4276830036587085 (../bond_oxdna_fene.cpp:209)
WARNING: FENE bond too long: 2 124 125 1.4276830036587072 (../bond_oxdna_fene.cpp:209)
WARNING: FENE bond too long: 2 173 172 1.22978834373452 (../bond_oxdna_fene.cpp:209)
WARNING: FENE bond too long: 2 172 173 1.2297883437345194 (../bond_oxdna_fene.cpp:209)
WARNING: FENE bond too long: 2 220 219 1.0510020080806288 (../bond_oxdna_fene.cpp:209)
WARNING: FENE bond too long: 2 219 220 1.0510020080806306 (../bond_oxdna_fene.cpp:209)
WARNING: FENE bond too long: 2 222 221 1.402416998140022 (../bond_oxdna_fene.cpp:209)
WARNING: FENE bond too long: 3 28 27 1.1952898736545745 (../bond_oxdna_fene.cpp:209)
WARNING: FENE bond too long: 3 30 29 1.4506174100453326 (../bond_oxdna_fene.cpp:209)
WARNING: FENE bond too long: 3 76 75 1.0190219805396297 (../bond_oxdna_fene.cpp:209)
WARNING: FENE bond too long: 3 78 77 1.5122886372224087 (../bond_oxdna_fene.cpp:209)
WARNING: FENE bond too long: 3 125 124 1.4274610088867794 (../bond_oxdna_fene.cpp:209)
WARNING: FENE bond too long: 3 124 125 1.4274610088867792 (../bond_oxdna_fene.cpp:209)
WARNING: FENE bond too long: 3 173 172 1.2293405568484201 (../bond_oxdna_fene.cpp:209)
WARNING: FENE bond too long: 3 172 173 1.2293405568484197 (../bond_oxdna_fene.cpp:209)
WARNING: FENE bond too long: 3 220 219 1.051432349130783 (../bond_oxdna_fene.cpp:209)
WARNING: FENE bond too long: 3 219 220 1.0514323491307858 (../bond_oxdna_fene.cpp:209)
WARNING: FENE bond too long: 3 222 221 1.4019139464806036 (../bond_oxdna_fene.cpp:209)
WARNING: FENE bond too long: 4 28 27 1.1944095267510075 (../bond_oxdna_fene.cpp:209)
WARNING: FENE bond too long: 4 30 29 1.4494151430192947 (../bond_oxdna_fene.cpp:209)
WARNING: FENE bond too long: 4 76 75 1.0184366920355172 (../bond_oxdna_fene.cpp:209)
WARNING: FENE bond too long: 4 78 77 1.5108994411776118 (../bond_oxdna_fene.cpp:209)
WARNING: FENE bond too long: 4 125 124 1.4264448000470158 (../bond_oxdna_fene.cpp:209)
WARNING: FENE bond too long: 4 124 125 1.4264448000470136 (../bond_oxdna_fene.cpp:209)
WARNING: FENE bond too long: 4 173 172 1.2282200077302985 (../bond_oxdna_fene.cpp:209)
WARNING: FENE bond too long: 4 172 173 1.2282200077303 (../bond_oxdna_fene.cpp:209)
WARNING: FENE bond too long: 4 220 219 1.051057972565352 (../bond_oxdna_fene.cpp:209)
WARNING: FENE bond too long: 4 219 220 1.0510579725653533 (../bond_oxdna_fene.cpp:209)
WARNING: FENE bond too long: 4 222 221 1.4008645192132747 (../bond_oxdna_fene.cpp:209)
WARNING: FENE bond too long: 5 28 27 1.1932997361915658 (../bond_oxdna_fene.cpp:209)
WARNING: FENE bond too long: 5 30 29 1.448138564960162 (../bond_oxdna_fene.cpp:209)
WARNING: FENE bond too long: 5 76 75 1.0182127737480307 (../bond_oxdna_fene.cpp:209)
WARNING: FENE bond too long: 5 78 77 1.5094033972445537 (../bond_oxdna_fene.cpp:209)
WARNING: FENE bond too long: 5 125 124 1.4252093976272635 (../bond_oxdna_fene.cpp:209)
WARNING: FENE bond too long: 5 124 125 1.4252093976272646 (../bond_oxdna_fene.cpp:209)
WARNING: FENE bond too long: 5 173 172 1.2269331205750675 (../bond_oxdna_fene.cpp:209)
WARNING: FENE bond too long: 5 172 173 1.2269331205750662 (../bond_oxdna_fene.cpp:209)
WARNING: FENE bond too long: 5 220 219 1.0507378671784522 (../bond_oxdna_fene.cpp:209)
WARNING: FENE bond too long: 5 219 220 1.0507378671784533 (../bond_oxdna_fene.cpp:209)
WARNING: FENE bond too long: 5 222 221 1.3995310382541728 (../bond_oxdna_fene.cpp:209)
WARNING: FENE bond too long: 6 28 27 1.1922479081918003 (../bond_oxdna_fene.cpp:209)
WARNING: FENE bond too long: 6 30 29 1.4467485520255363 (../bond_oxdna_fene.cpp:209)
WARNING: FENE bond too long: 6 76 75 1.017790157618747 (../bond_oxdna_fene.cpp:209)
WARNING: FENE bond too long: 6 78 77 1.5073234307699634 (../bond_oxdna_fene.cpp:209)
WARNING: FENE bond too long: 6 125 124 1.4237560798064823 (../bond_oxdna_fene.cpp:209)
WARNING: FENE bond too long: 6 124 125 1.423756079806484 (../bond_oxdna_fene.cpp:209)
WARNING: FENE bond too long: 6 173 172 1.2262349407968685 (../bond_oxdna_fene.cpp:209)
WARNING: FENE bond too long: 6 172 173 1.2262349407968698 (../bond_oxdna_fene.cpp:209)
WARNING: FENE bond too long: 6 220 219 1.050372442590637 (../bond_oxdna_fene.cpp:209)
WARNING: FENE bond too long: 6 219 220 1.0503724425906336 (../bond_oxdna_fene.cpp:209)
WARNING: FENE bond too long: 6 222 221 1.397909972082037 (../bond_oxdna_fene.cpp:209)
WARNING: FENE bond too long: 7 28 27 1.1911952527874141 (../bond_oxdna_fene.cpp:209)
WARNING: FENE bond too long: 7 30 29 1.4452713611257453 (../bond_oxdna_fene.cpp:209)
WARNING: FENE bond too long: 7 76 75 1.0177490780307772 (../bond_oxdna_fene.cpp:209)
WARNING: FENE bond too long: 7 78 77 1.5053101442664343 (../bond_oxdna_fene.cpp:209)
WARNING: FENE bond too long: 7 125 124 1.4220939037907345 (../bond_oxdna_fene.cpp:209)
WARNING: FENE bond too long: 7 124 125 1.4220939037907367 (../bond_oxdna_fene.cpp:209)
WARNING: FENE bond too long: 7 173 172 1.2252625426589334 (../bond_oxdna_fene.cpp:209)
WARNING: FENE bond too long: 7 172 173 1.2252625426589319 (../bond_oxdna_fene.cpp:209)
WARNING: FENE bond too long: 7 220 219 1.0500918322137196 (../bond_oxdna_fene.cpp:209)
WARNING: FENE bond too long: 7 219 220 1.0500918322137218 (../bond_oxdna_fene.cpp:209)
WARNING: FENE bond too long: 7 222 221 1.396512823430969 (../bond_oxdna_fene.cpp:209)
WARNING: FENE bond too long: 8 28 27 1.1902148046645766 (../bond_oxdna_fene.cpp:209)
WARNING: FENE bond too long: 8 30 29 1.443457929870105 (../bond_oxdna_fene.cpp:209)
WARNING: FENE bond too long: 8 76 75 1.0178260179149508 (../bond_oxdna_fene.cpp:209)
WARNING: FENE bond too long: 8 78 77 1.5032980474195432 (../bond_oxdna_fene.cpp:209)
WARNING: FENE bond too long: 8 125 124 1.420216913114798 (../bond_oxdna_fene.cpp:209)
WARNING: FENE bond too long: 8 124 125 1.4202169131148 (../bond_oxdna_fene.cpp:209)
WARNING: FENE bond too long: 8 173 172 1.2242772978136733 (../bond_oxdna_fene.cpp:209)
WARNING: FENE bond too long: 8 172 173 1.224277297813674 (../bond_oxdna_fene.cpp:209)
WARNING: FENE bond too long: 8 220 219 1.048998292086838 (../bond_oxdna_fene.cpp:209)
WARNING: FENE bond too long: 8 219 220 1.0489982920868386 (../bond_oxdna_fene.cpp:209)
WARNING: Too many warnings: 1393 vs 100. All future warnings will be suppressed (../thermo.cpp:422)
   10000   0.10339844 
   20000   0.10302257 
   30000  0.091739615 
   40000  0.097426819 
   50000    0.1034185 
   60000   0.10287098 
   70000  0.095298799 
   80000   0.09711571 
   90000  0.095226618 
  100000   0.10337189 
  110000  0.097527232 
  120000  0.093052429 
  130000  0.093291941 
  140000  0.096040991 
  150000    0.1151672 
  160000   0.10950157 
  170000   0.10098601 
  180000  0.090951781 
  190000  0.099238427 
  200000  0.098286063 
  210000  0.094807773 
  220000  0.089834626 
  230000   0.10246278 
  240000   0.10039734 
  250000  0.094443512 
  260000   0.10046418 
  270000    0.1031338 
  280000  0.099289641 
  290000   0.10303602 
  300000   0.09697014 
  310000  0.098618715 
  320000   0.10688889 
  330000  0.099253518 
  340000  0.094998477 
  350000  0.099033357 
  360000  0.091372515 
  370000   0.10000337 
  380000  0.094913205 
  390000  0.099422587 
  400000  0.099129318 
  410000   0.10946844 
  420000  0.097142666 
  430000  0.094870574 
  440000  0.094331836 
  450000   0.10564892 
  460000   0.10020163 
  470000   0.10833674 
  480000  0.087428811 
  490000   0.10404988 
  500000   0.09394141 
  510000  0.099299173 
  520000   0.10210989 
  530000   0.10458657 
  540000   0.10835742 
  550000   0.10394338 
  560000   0.10603381 
  570000  0.098661237 
  580000   0.10145078 
  590000  0.099406124 
  600000  0.099030388 
  610000   0.10353871 
  620000   0.10704905 
  630000   0.10381719 
  640000  0.097382111 
  650000  0.098449631 
  660000   0.10576539 
  670000  0.091333232 
  680000   0.10451129 
  690000   0.10936226 
  700000   0.10479682 
  710000   0.11000905 
  720000  0.094383905 
  730000    0.1091475 
  740000  0.098621706 
  750000   0.10070267 
  760000   0.10853259 
  770000  0.095956652 
  780000  0.097731742 
  790000   0.10178151 
  800000  0.097812193 
  810000   0.10947891 
  820000   0.10528373 
  830000  0.094460236 
  840000  0.096774048 
  850000  0.097795594 
  860000    0.1000355 
  870000   0.10015034 
  880000    0.1072737 
  890000  0.093070328 
  900000   0.10235058 
  910000   0.11011479 
  920000   0.10560099 
  930000  0.099310783 
  940000  0.099428285 
  950000   0.10297734 
  960000   0.10293002 
  970000   0.10240635 
  980000   0.10526696 
  990000   0.10074632 
 1000000   0.10293321 
 1010000   0.10093628 
 1020000   0.10342835 
 1030000  0.098176553 
 1040000  0.096297353 
 1050000  0.099987893 
 1060000  0.092821499 
 1070000  0.098861123 
 1080000  0.097797864 
 1090000   0.10307127 
 1100000   0.10510543 
 1110000  0.095679133 
 1120000     0.103395 
 1130000   0.10819528 
 1140000   0.10808795 
 1150000  0.094123945 
 1160000  0.089807302 
 1170000  0.095405668 
 1180000   0.10129163 
 1190000  0.087187817 
 1200000  0.093082835 
 1210000    0.1005783 
 1220000  0.097675476 
 1230000   0.10490254 
 1240000    0.1017904 
 1250000   0.10529943 
 1260000   0.10267622 
 1270000   0.10178662 
 1280000  0.097388649 
 1290000  0.099819592 
 1300000  0.091571442 
 1310000   0.10088391 
 1320000  0.091359748 
 1330000   0.10007058 
 1340000  0.095908585 
 1350000   0.11011342 
 1360000  0.094392048 
 1370000  0.090152479 
 1380000    0.1007571 
 1390000   0.10396006 
 1400000     0.108385 
 1410000   0.10951037 
 1420000  0.095958908 
 1430000   0.10014724 
 1440000   0.10425061 
 1450000   0.10607908 
 1460000  0.093267059 
 1470000  0.097348331 
 1480000  0.096403037 
 1490000  0.095726942 
 1500000   0.10648134 
 1510000   0.10366278 
 1520000   0.10567199 
 1530000   0.10116367 
 1540000  0.096245263 
 1550000   0.10873504 
 1560000   0.10003728 
 1570000  0.095418216 
 1580000  0.095992362 
 1590000   0.10515875 
 1600000   0.10329622 
 1610000  0.097285631 
 1620000  0.093025692 
 1630000  0.099970073 
 1640000    0.1033494 
 1650000   0.10640147 
 1660000   0.10333899 
 1670000    0.1027414 
 1680000   0.10271935 
 1690000  0.099607659 
 1700000   0.10863318 
 1710000   0.10603706 
 1720000  0.099627857 
 1730000    0.1028505 
 1740000   0.11173756 
 1750000   0.10476144 
 1760000   0.10199667 
 1770000    0.1024989 
 1780000   0.10797883 
 1790000   0.10172601 
 1800000   0.10384605 
 1810000   0.10239541 
 1820000   0.10161348 
 1830000   0.10431105 
 1840000   0.10370172 
 1850000  0.099641978 
 1860000  0.099841879 
 1870000   0.10730754 
 1880000   0.10868152 
 1890000   0.10411712 
 1900000  0.094511771 
 1910000   0.10534574 
 1920000   0.10822053 
 1930000  0.095618741 
 1940000  0.096363011 
 1950000   0.10224014 
 1960000   0.10839684 
 1970000    0.1027573 
 1980000   0.10069267 
 1990000   0.10951318 
 2000000   0.10253227 
 2010000   0.10883034 
 2020000  0.096304321 
 2030000   0.11112895 
 2040000   0.10821779 
 2050000   0.10516103 
 2060000   0.10763623 
 2070000   0.10502392 
 2080000  0.097000353 
 2090000  0.095723565 
 2100000   0.10547997 
 2110000  0.099938479 
 2120000   0.09492279 
 2130000  0.096404443 
 2140000  0.096500848 
 2150000   0.10435281 
 2160000   0.10420288 
 2170000  0.090311275 
 2180000  0.090649601 
 2190000   0.10470629 
 2200000   0.10058082 
 2210000   0.10430765 
 2220000   0.11649886 
 2230000  0.098041032 
 2240000  0.098544713 
 2250000  0.096424776 
 2260000   0.10246633 
 2270000  0.091326664 
 2280000   0.10136277 
 2290000   0.11553621 
 2300000  0.098615394 
 2310000   0.10405414 
 2320000  0.098125624 
 2330000   0.11188163 
 2340000   0.10017313 
 2350000   0.10969617 
 2360000  0.098050323 
 2370000   0.10060507 
 2380000  0.093794108 
 2390000   0.10354313 
 2400000   0.10141904 
 2410000   0.09798786 
 2420000   0.11166039 
 2430000  0.097672477 
 2440000  0.095412493 
 2450000  0.095726972 
 2460000  0.096497236 
 2470000   0.10529235 
 2480000   0.10347785 
 2490000  0.095281241 
 2500000   0.10062029 
 2510000   0.10152893 
 2520000   0.10392631 
 2530000   0.10098216 
 2540000    0.1016504 
 2550000  0.097533353 
 2560000   0.10419804 
 2570000  0.098258245 
 2580000  0.095195735 
 2590000   0.10462399 
 2600000   0.10908375 
 2610000   0.11274963 
 2620000   0.10533218 
 2630000   0.10227059 
 2640000  0.096448289 
 2650000  0.098927056 
 2660000  0.091731918 
 2670000   0.10094568 
 2680000   0.10538579 
 2690000   0.11415127 
 2700000    0.1035258 
 2710000   0.10398835 
 2720000   0.10143391 
 2730000   0.10520212 
 2740000   0.09314238 
 2750000   0.10531563 
 2760000   0.10580901 
 2770000  0.097687221 
 2780000  0.093762663 
 2790000  0.095200345 
 2800000  0.097552121 
 2810000   0.10471724 
 2820000   0.10312108 
 2830000   0.10211269 
 2840000   0.10526891 
 2850000   0.10442519 
 2860000    0.1068149 
 2870000  0.099434228 
 2880000  0.099210047 
 2890000  0.091893556 
 2900000  0.098539724 
 2910000   0.10464808 
 2920000  0.094774819 
 2930000   0.10347114 
 2940000  0.092281313 
 2950000   0.10241531 
 2960000   0.10025213 
 2970000  0.098291728 
 2980000   0.10898873 
 2990000  0.092212121 
 3000000   0.09651265 
 3010000    0.1006891 
 3020000  0.095411259 
 3030000  0.092523063 
 3040000  0.090835126 
 3050000  0.095608393 
 3060000   0.10030093 
 3070000   0.10049556 
 3080000  0.099825222 
 3090000  0.098124313 
 3100000  0.099229907 
 3110000   0.09565227 
 3120000   0.10388611 
 3130000   0.10258321 
 3140000   0.10063635 
 3150000  0.097166149 
 3160000    0.1075988 
 3170000   0.10441542 
 3180000  0.097245186 
 3190000  0.097960277 
 3200000  0.095375243 
 3210000  0.093968145 
 3220000   0.10423868 
 3230000  0.096318284 
 3240000  0.099208315 
 3250000   0.11313489 
 3260000   0.10217051 
 3270000  0.094008485 
 3280000  0.092841117 
 3290000    0.1032569 
 3300000   0.10396953 
 3310000   0.10474842 
 3320000  0.097737696 
 3330000   0.10364634 
 3340000    0.1060093 
 3350000  0.095319097 
 3360000   0.10016164 
 3370000      0.10134 
 3380000   0.10017217 
 3390000   0.10497867 
 3400000  0.093419591 
 3410000  0.099872527 
 3420000   0.11805973 
 3430000  0.089860395 
 3440000  0.096930372 
 3450000  0.099718382 
 3460000   0.10622456 
 3470000   0.10101406 
 3480000    0.0940391 
 3490000   0.10124049 
 3500000   0.10009992 
 3510000   0.10826812 
 3520000  0.092769392 
 3530000   0.10822649 
 3540000   0.10245628 
 3550000   0.10320132 
 3560000   0.10355798 
 3570000  0.089221601 
 3580000  0.098074017 
 3590000   0.10471879 
 3600000   0.11067516 
 3610000  0.095925228 
 3620000  0.096894566 
 3630000  0.098159817 
 3640000  0.099952894 
 3650000  0.095708465 
 3660000  0.099619345 
 3670000  0.092752266 
 3680000    0.1023633 
 3690000   0.10547212 
 3700000   0.10214833 
 3710000  0.094227187 
 3720000  0.093708891 
 3730000  0.098745964 
 3740000  0.099605252 
 3750000  0.099380113 
 3760000   0.10480595 
 3770000  0.094585719 
 3780000    0.1032333 
 3790000  0.093572755 
 3800000    0.1007149 
 3810000  0.093840155 
 3820000   0.10804173 
 3830000   0.10461364 
 3840000  0.094412614 
 3850000   0.10212856 
 3860000  0.097900568 
 3870000   0.10135099 
 3880000  0.098700253 
 3890000   0.10469871 
 3900000  0.090864163 
 3910000  0.098920703 
 3920000  0.093235896 
 3930000   0.10408757 
 3940000   0.10510727 
 3950000  0.093093658 
 3960000   0.10443626 
 3970000  0.095355559 
 3980000  0.097487148 
 3990000   0.10376184 
 4000000   0.10018233 
 4010000   0.10885135 
 4020000  0.099536705 
 4030000  0.090990879 
 4040000   0.10336104 
 4050000  0.099437672 
 4060000  0.094307963 
 4070000    0.1164383 
 4080000  0.097828532 
 4090000   0.11514167 
 4100000  0.094675203 
 4110000  0.096083539 
 4120000   0.10891556 
 4130000   0.10266102 
 4140000   0.10376459 
 4150000  0.099014131 
 4160000  0.094679337 
 4170000  0.099429009 
 4180000  0.099711381 
 4190000   0.11083871 
 4200000  0.098322807 
 4210000  0.095657354 
 4220000    0.1003249 
 4230000   0.10595316 
 4240000   0.10767245 
 4250000   0.10544493 
 4260000  0.096569526 
 4270000   0.11246928 
 4280000    0.1089845 
 4290000  0.096532177 
 4300000   0.10609937 
 4310000   0.09893878 
 4320000  0.098590043 
 4330000   0.11216567 
 4340000  0.097865292 
 4350000   0.10631982 
 4360000  0.087297351 
 4370000  0.098471258 
 4380000   0.10288096 
 4390000   0.10262656 
 4400000   0.10711854 
 4410000   0.10693601 
 4420000  0.093845753 
 4430000   0.10175695 
 4440000  0.098673534 
 4450000   0.10030343 
 4460000   0.10804353 
 4470000   0.11504136 
 4480000   0.10369527 
 4490000  0.095669514 
 4500000   0.10228029 
 4510000   0.10558009 
 4520000    0.1005217 
 4530000   0.10134315 
 4540000   0.11010311 
 4550000  0.096135308 
 4560000  0.098217384 
 4570000   0.10045553 
 4580000   0.10340034 
 4590000   0.10346643 
 4600000  0.097053141 
 4610000   0.10639158 
 4620000  0.097393012 
 4630000  0.090309391 
 4640000   0.10568119 
 4650000   0.10602502 
 4660000  0.092308747 
 4670000  0.095695806 
 4680000   0.10221078 
 4690000   0.10030537 
 4700000   0.10483286 
 4710000  0.095693134 
 4720000    0.1036134 
 4730000  0.096447031 
 4740000  0.099859251 
 4750000  0.098063405 
 4760000  0.094736463 
 4770000  0.096849773 
 4780000   0.10232304 
 4790000    0.1035657 
 4800000   0.10861398 
 4810000   0.10137322 
 4820000   0.10260329 
 4830000   0.10048239 
 4840000   0.10386786 
 4850000  0.094828547 
 4860000   0.10157461 
 4870000   0.10136198 
 4880000   0.10315743 
 4890000  0.098664626 
 4900000  0.099176619 
 4910000   0.10281498 
 4920000   0.10227042 
 4930000  0.095016374 
 4940000  0.097753807 
 4950000   0.09809461 
 4960000   0.10471071 
 4970000   0.11241085 
 4980000   0.10376086 
 4990000   0.10381713 
 5000000   0.11253045 
 5010000    0.1042217 
 5020000   0.10380794 
 5030000  0.096521973 
 5040000  0.097474953 
 5050000   0.10767777 
 5060000   0.10866065 
 5070000   0.11154598 
 5080000   0.10249621 
 5090000  0.096411514 
 5100000  0.099742865 
 5110000   0.10209697 
 5120000  0.098280906 
 5130000   0.10587804 
 5140000  0.088485314 
 5150000   0.10420263 
 5160000   0.10248326 
 5170000   0.10531045 
 5180000   0.10436186 
 5190000  0.093825458 
 5200000   0.10555134 
 5210000  0.092623507 
 5220000  0.099121136 
 5230000  0.098682603 
 5240000   0.10278329 
 5250000  0.097572968 
 5260000    0.1030098 
 5270000  0.099267926 
 5280000  0.098518315 
 5290000   0.10306538 
 5300000   0.10154692 
 5310000  0.094618512 
 5320000    0.1011362 
 5330000    0.1009131 
 5340000  0.094445273 
 5350000   0.10614717 
 5360000   0.10447564 
 5370000   0.10752342 
 5380000   0.10557513 
 5390000   0.09998095 
 5400000  0.097394599 
 5410000   0.10076025 
 5420000     0.100306 
 5430000   0.10444117 
 5440000   0.10370092 
 5450000   0.10302388 
 5460000   0.10272465 
 5470000   0.10558432 
 5480000   0.10124515 
 5490000    0.1014765 
 5500000   0.10103991 
 5510000   0.10777981 
 5520000  0.099562085 
 5530000  0.097489917 
 5540000   0.10609221 
 5550000    0.1071886 
 5560000   0.10208313 
 5570000  0.099413642 
 5580000   0.10190753 
 5590000  0.098389598 
 5600000  0.095444562 
 5610000   0.10074241 
 5620000   0.10229952 
 5630000  0.099754934 
 5640000   0.10618124 
 5650000  0.097742791 
 5660000   0.10537732 
 5670000  0.095812162 
 5680000   0.10476354 
 5690000   0.10235858 
 5700000  0.096680765 
 5710000  0.093621436 
 5720000  0.098729933 
 5730000   0.10243544 
 5740000  0.094420034 
 5750000  0.099824347 
 5760000  0.094952522 
 5770000   0.10399105 
 5780000  0.097699558 
 5790000  0.096888611 
 5800000  0.094055747 
 5810000   0.10081966 
 5820000  0.099146006 
 5830000   0.09386331 
 5840000   0.10484963 
 5850000  0.099003509 
 5860000  0.092577778 
 5870000   0.10322528 
 5880000  0.095650575 
 5890000   0.10281337 
 5900000  0.097854194 
 5910000  0.088299718 
 5920000  0.097070391 
 5930000  0.094026185 
 5940000   0.10599209 
 5950000  0.093872421 
 5960000    0.1118647 
 5970000   0.10832289 
 5980000  0.089733143 
 5990000  0.092054089 
 6000000   0.10108779 
 6010000   0.10010956 
 6020000   0.10619133 
 6030000   0.10805013 
 6040000  0.097738809 
 6050000   0.10510072 
 6060000   0.11088257 
 6070000   0.10507756 
 6080000   0.10282538 
 6090000  0.095839646 
 6100000  0.094120409 
 6110000   0.10022476 
 6120000   0.11220747 
 6130000   0.10755063 
 6140000   0.10157906 
 6150000   0.10013518 
 6160000   0.10047908 
 6170000   0.09399034 
 6180000  0.096422794 
 6190000  0.092512841 
 6200000  0.097727943 
 6210000   0.10717372 
 6220000   0.10579439 
 6230000   0.10749292 
 6240000  0.098969289 
 6250000  0.087587075 
 6260000  0.099803392 
 6270000   0.11053962 
 6280000   0.10368735 
 6290000  0.097554368 
 6300000   0.10764648 
 6310000  0.096517582 
 6320000  0.097954278 
 6330000   0.10949727 
 6340000   0.10417777 
 6350000   0.10263751 
 6360000   0.10157578 
 6370000   0.10057119 
 6380000   0.10028631 
 6390000  0.092067412 
 6400000   0.10116504 
 6410000  0.096974488 
 6420000   0.10377261 
 6430000    0.1014942 
 6440000   0.10957077 
 6450000  0.097398825 
 6460000   0.10241358 
 6470000   0.10121498 
 6480000   0.10877148 
 6490000  0.099371223 
 6500000  0.097716854 
 6510000  0.090793715 
 6520000   0.10120408 
 6530000  0.098523427 
 6540000   0.10193141 
 6550000   0.10798408 
 6560000  0.097803107 
 6570000   0.10707557 
 6580000   0.10121539 
 6590000  0.094782688 
 6600000  0.092397299 
 6610000   0.10572054 
 6620000  0.097901162 
 6630000   0.10268554 
 6640000   0.10213914 
 6650000  0.095733781 
 6660000   0.10426837 
 6670000   0.10115934 
 6680000  0.091507578 
 6690000   0.10562178 
 6700000  0.094577741 
 6710000   0.10517528 
 6720000   0.11559785 
 6730000  0.098896586 
 6740000  0.094616797 
 6750000  0.095360914 
 6760000   0.10617951 
 6770000  0.098262528 
 6780000   0.09852006 
 6790000    0.1093657 
 6800000   0.10274394 
 6810000  0.097235758 
 6820000   0.10248045 
 6830000   0.10782727 
 6840000   0.10625206 
 6850000   0.10971326 
 6860000   0.10570627 
 6870000  0.091759389 
 6880000   0.10035196 
 6890000   0.10001658 
 6900000   0.10182735 
 6910000   0.10164028 
 6920000  0.097467325 
 6930000   0.10185097 
 6940000  0.090435462 
 6950000    0.1032199 
 6960000   0.11494921 
 6970000   0.09658824 
 6980000   0.10762504 
 6990000   0.10936042 
 7000000     0.101506 
 7010000    0.1033096 
 7020000   0.10858425 
 7030000   0.11024579 
 7040000  0.097229939 
 7050000   0.10525183 
 7060000  0.099792913 
 7070000   0.10337326 
 7080000   0.10419701 
 7090000   0.10283742 
 7100000  0.098660095 
 7110000   0.10586719 
 7120000   0.11233908 
 7130000  0.097124604 
 7140000   0.10995775 
 7150000   0.10273712 
 7160000   0.10373611 
 7170000  0.093230184 
 7180000  0.091775098 
 7190000  0.089058642 
 7200000   0.10412601 
 7210000    0.1004662 
 7220000   0.10408088 
 7230000  0.096129505 
 7240000   0.10182897 
 7250000  0.096114611 
 7260000  0.099007194 
 7270000   0.10410861 
 7280000   0.11004277 
 7290000  0.096950613 
 7300000    0.1130522 
 7310000  0.096060822 
 7320000  0.091617251 
 7330000   0.10456349 
 7340000   0.10978334 
 7350000   0.10340321 
 7360000  0.097200976 
 7370000  0.096999054 
 7380000    0.1102758 
 7390000   0.10969788 
 7400000   0.10440402 
 7410000   0.10159356 
 7420000   0.09705869 
 7430000   0.10470703 
 7440000   0.10046952 
 7450000   0.09854813 
 7460000   0.10061541 
 7470000   0.10167773 
 7480000  0.094163581 
 7490000   0.09872599 
 7500000   0.10243708 
 7510000   0.10030014 
 7520000   0.10183818 
 7530000  0.092056287 
 7540000  0.099595184 
 7550000  0.098743496 
 7560000  0.090151394 
 7570000   0.10335118 
 7580000   0.10669465 
 7590000   0.10110296 
 7600000    0.1059532 
 7610000  0.097026719 
 7620000  0.093089078 
 7630000   0.10366485 
 7640000   0.10630899 
 7650000  0.086426571 
 7660000  0.096273613 
 7670000   0.10613162 
 7680000   0.10699405 
 7690000   0.10985989 
 7700000  0.096123714 
 7710000    0.1094135 
 7720000   0.10333009 
 7730000  0.099384949 
 7740000  0.096223927 
 7750000  0.092270452 
 7760000   0.10279157 
 7770000   0.10137966 
 7780000    0.1073919 
 7790000  0.093846461 
 7800000  0.097844951 
 7810000    0.1010029 
 7820000  0.090564648 
 7830000  0.090731365 
 7840000  0.090701136 
 7850000    0.1092606 
 7860000  0.099363928 
 7870000  0.097476676 
 7880000  0.099425262 
 7890000   0.10107656 
 7900000   0.10010141 
 7910000   0.10282483 
 7920000   0.10594697 
 7930000    0.1016269 
 7940000   0.10198289 
 7950000   0.10495985 
 7960000   0.10343324 
 7970000   0.10104905 
 7980000   0.10451049 
 7990000  0.096165203 
 8000000  0.092269243 
 8010000  0.097115933 
 8020000   0.09868657 
 8030000    0.1032551 
 8040000   0.10670031 
 8050000   0.10112776 
 8060000   0.10165322 
 8070000  0.099781902 
 8080000   0.10922461 
 8090000  0.098656369 
 8100000  0.099196917 
 8110000  0.098479639 
 8120000   0.11019972 
 8130000    0.1014494 
 8140000   0.11122458 
 8150000  0.093862845 
 8160000   0.10035017 
 8170000  0.098168481 
 8180000   0.11116663 
 8190000  0.099603963 
 8200000  0.093612392 
 8210000  0.092161288 
 8220000   0.10186724 
 8230000  0.096407243 
 8240000   0.10484989 
 8250000   0.10364594 
 8260000  0.095021082 
 8270000   0.10014494 
 8280000   0.10662685 
 8290000   0.10037127 
 8300000  0.099701624 
 8310000   0.10169822 
 8320000   0.10290022 
 8330000   0.10043307 
 8340000  0.096313241 
 8350000   0.10634087 
 8360000    0.1005272 
 8370000   0.10603386 
 8380000     0.102257 
 8390000  0.093418954 
 8400000  0.095704647 
 8410000  0.097474798 
 8420000   0.10040367 
 8430000  0.092678026 
 8440000  0.094463924 
 8450000   0.09314158 
 8460000   0.10401174 
 8470000   0.10897183 
 8480000  0.091610528 
 8490000  0.088519801 
 8500000   0.10253317 
 8510000   0.10087014 
 8520000  0.098592524 
 8530000   0.10319382 
 8540000   0.11114029 
 8550000  0.095858987 
 8560000   0.10212575 
 8570000   0.10592181 
 8580000  0.099215416 
 8590000   0.10062085 
 8600000  0.094982129 
 8610000   0.10202049 
 8620000  0.093789814 
 8630000  0.098802806 
 8640000   0.10612308 
 8650000  0.098736859 
 8660000   0.10048965 
 8670000   0.10575894 
 8680000   0.10588994 
 8690000   0.10529464 
 8700000   0.10625233 
 8710000   0.10058457 
 8720000   0.10704025 
 8730000   0.10475448 
 8740000  0.096881536 
 8750000   0.10361537 
 8760000   0.10132094 
 8770000  0.097030578 
 8780000  0.099436744 
 8790000   0.10074275 
 8800000   0.10969026 
 8810000   0.10437174 
 8820000   0.10492787 
 8830000   0.08802761 
 8840000  0.099932318 
 8850000   0.11273286 
 8860000  0.098009371 
 8870000  0.099544092 
 8880000  0.093097086 
 8890000  0.096195485 
 8900000  0.094766572 
 8910000  0.098283364 
 8920000  0.094123659 
 8930000  0.094462182 
 8940000  0.092394842 
 8950000   0.10164241 
 8960000  0.094338605 
 8970000   0.10935051 
 8980000  0.092155842 
 8990000   0.10713511 
 9000000   0.10801057 
 9010000   0.10499056 
 9020000   0.10801519 
 9030000  0.099033329 
 9040000   0.10214682 
 9050000   0.10076214 
 9060000  0.090264452 
 9070000  0.091004297 
 9080000  0.097600858 
 9090000   0.10513563 
 9100000  0.094705434 
 9110000  0.093114692 
 9120000  0.099271883 
 9130000   0.10160427 
 9140000   0.10803286 
 9150000  0.092313413 
 9160000   0.11147597 
 9170000  0.094156529 
 9180000   0.09675166 
 9190000   0.10440123 
 9200000    0.1088566 
 9210000   0.10956183 
 9220000   0.10468533 
 9230000   0.10205027 
 9240000  0.093814811 
 9250000   0.10108609 
 9260000   0.10138904 
 9270000  0.091062477 
 9280000    0.1020116 
 9290000  0.095059316 
 9300000   0.10670995 
 9310000  0.097751094 
 9320000  0.098514545 
 9330000  0.099825792 
 9340000   0.10364219 
 9350000  0.091578309 
 9360000   0.09450237 
 9370000   0.11288127 
 9380000  0.098818789 
 9390000  0.095346294 
 9400000   0.08696646 
 9410000   0.10771353 
 9420000    0.1006009 
 9430000   0.10084879 
 9440000   0.10539409 
 9450000   0.10060421 
 9460000  0.099656186 
 9470000   0.10047619 
 9480000  0.095874976 
 9490000   0.11480238 
 9500000   0.11057574 
 9510000   0.10939711 
 9520000    0.1019287 
 9530000   0.11036813 
 9540000  0.095515456 
 9550000  0.099748857 
 9560000  0.099191408 
 9570000   0.10403385 
 9580000  0.098532683 
 9590000   0.10377437 
 9600000  0.099396974 
 9610000    0.1029047 
 9620000  0.097887499 
 9630000   0.10872073 
 9640000   0.10154376 
 9650000  0.094052745 
 9660000   0.10321085 
 9670000   0.10037019 
 9680000   0.10635585 
 9690000   0.10635119 
 9700000   0.10237202 
 9710000  0.097401402 
 9720000  0.099381685 
 9730000  0.093854886 
 9740000   0.10263585 
 9750000   0.10490296 
 9760000    0.1036206 
 9770000   0.10136087 
 9780000  0.096836662 
 9790000  0.099670642 
 9800000   0.10104566 
 9810000  0.097608372 
 9820000   0.10117366 
 9830000  0.098552017 
 9840000  0.094323637 
 9850000   0.11102695 
 9860000  0.088870878 
 9870000  0.099823999 
 9880000   0.10536254 
 9890000   0.10528817 
 9900000   0.10765821 
 9910000  0.094041828 
 9920000  0.098600104 
 9930000  0.096529558 
 9940000    0.0913911 
 9950000   0.10111019 
 9960000  0.099977434 
 9970000   0.10247934 
 9980000  0.093438348 
 9990000   0.10852066 
10000000  0.096762904 
10010000  0.099094605 
10020000   0.10566389 
10030000   0.10582194 
10040000   0.10166891 
10050000  0.095115488 
10060000   0.10191577 
10070000    0.1097793 
10080000   0.10398973 
10090000   0.10183583 
10100000  0.099365186 
10110000  0.098415217 
10120000   0.10227595 
10130000  0.090103962 
10140000   0.10903295 
10150000  0.099711938 
10160000  0.095206302 
10170000  0.098399094 
10180000  0.091489935 
10190000   0.10671909 
10200000   0.10519211 
10210000   0.10732237 
10220000    0.1103488 
10230000   0.10449573 
10240000  0.099900359 
10250000   0.11092414 
10260000  0.098652932 
10270000   0.10107518 
10280000  0.099790741 
10290000   0.09279108 
10300000   0.10636805 
10310000  0.099390889 
10320000  0.099968481 
10330000   0.10967721 
10340000   0.10223328 
10350000   0.11086068 
10360000  0.099075297 
10370000   0.10380459 
10380000  0.096609982 
10390000  0.097071037 
10400000  0.094141652 
10410000  0.094746863 
10420000   0.10185021 
10430000   0.10193454 
10440000   0.10474129 
10450000    0.1048591 
10460000  0.095869169 
10470000  0.090242201 
10480000   0.09895914 
10490000  0.096376151 
10500000  0.093616929 
10510000  0.093910487 
10520000   0.10776052 
10530000  0.099311435 
10540000  0.098574918 
10550000   0.10317185 
10560000   0.11462858 
10570000  0.098762942 
10580000   0.10299826 
10590000   0.10582293 
10600000   0.10373254 
10610000  0.093994598 
10620000    0.1051102 
10630000  0.095149136 
10640000   0.10006034 
10650000  0.091733429 
10660000  0.096148708 
10670000  0.097789609 
10680000  0.099251228 
10690000   0.10697823 
10700000   0.10049786 
10710000   0.10471824 
10720000   0.10485598 
10730000    0.1013635 
10740000   0.10176519 
10750000   0.10127046 
10760000  0.094158142 
10770000  0.098659529 
10780000   0.10468798 
10790000   0.10235018 
10800000   0.10900774 
10810000  0.097063034 
10820000  0.099040773 
10830000    0.1025851 
10840000  0.094172944 
10850000   0.10000877 
10860000   0.10293078 
10870000   0.10074974 
10880000  0.098543383 
10890000   0.10255857 
10900000  0.092061767 
10910000    0.1080612 
10920000  0.089922602 
10930000   0.11084044 
10940000   0.10772253 
10950000   0.10866169 
10960000    0.1049078 
10970000   0.10098389 
10980000   0.10403286 
10990000  0.097495596 
11000000   0.10899481 
11010000   0.10009328 
11020000   0.10149043 
11030000  0.099859722 
11040000  0.097743384 
11050000   0.10275806 
11060000   0.10204204 
11070000   0.10700392 
11080000  0.091811286 
11090000   0.10682553 
11100000   0.10151976 
11110000   0.10314971 
11120000  0.096065603 
11130000   0.10522693 
11140000   0.10938569 
11150000   0.10156545 
11160000   0.10118004 
11170000   0.10511885 
11180000  0.099466582 
11190000  0.095494435 
11200000   0.10790765 
11210000   0.10006198 
11220000  0.098724238 
11230000   0.11057413 
11240000  0.094277785 
11250000   0.10183683 
11260000   0.10131979 
11270000   0.10459881 
11280000   0.10382379 
11290000  0.096985857 
11300000  0.099509257 
11310000   0.10397196 
11320000   0.10138995 
11330000   0.10485948 
11340000  0.099220516 
11350000  0.095385583 
11360000   0.10468644 
11370000   0.11120668 
11380000   0.10289623 
11390000  0.098348084 
11400000  0.095251009 
11410000  0.097190054 
11420000   0.10010085 
11430000   0.11079063 
11440000  0.096111678 
11450000  0.089960099 
11460000   0.10074615 
11470000  0.096108956 
11480000   0.10239289 
11490000  0.098595468 
11500000   0.10912809 
11510000   0.11066161 
11520000  0.097902728 
11530000   0.10517042 
11540000  0.098378496 
11550000   0.10586021 
11560000  0.087327838 
11570000  0.096300744 
11580000  0.086535327 
11590000  0.097835782 
11600000   0.10498496 
11610000   0.10621641 
11620000     0.097412 
11630000  0.098593142 
11640000  0.095960697 
11650000     0.105841 
11660000   0.10216789 
11670000  0.092138075 
11680000  0.092603262 
11690000   0.10126411 
11700000   0.11303168 
11710000   0.10697938 
11720000  0.098857107 
11730000   0.10113594 
11740000  0.097277465 
11750000  0.094254019 
11760000  0.097569245 
11770000   0.10024907 
11780000    0.1007051 
11790000  0.086995946 
11800000    0.1016075 
11810000   0.09396809 
11820000   0.09720428 
11830000    0.1006621 
11840000   0.10061711 
11850000      0.10429 
11860000   0.10831225 
11870000    0.1017413 
11880000   0.10838701 
11890000  0.099695982 
11900000  0.084705484 
11910000   0.10210742 
11920000  0.096864768 
11930000  0.097185341 
11940000   0.10360606 
11950000  0.097504118 
11960000   0.11228746 
11970000  0.098375476 
11980000   0.10273933 
11990000   0.10285251 
12000000   0.10587279 
12010000   0.10576283 
12020000  0.093577832 
12030000    0.0949108 
12040000    0.1005545 
12050000  0.099284294 
12060000  0.097079337 
12070000  0.097180172 
12080000  0.095567241 
12090000  0.097810619 
12100000   0.10362509 
12110000  0.095639498 
12120000  0.096515707 
12130000  0.099883234 
12140000  0.097403102 
12150000   0.10566003 
12160000  0.095020529 
12170000  0.096340718 
12180000   0.10028142 
12190000  0.095435943 
12200000   0.10122706 
12210000  0.096663502 
12220000   0.10230474 
12230000  0.098500657 
12240000   0.10878605 
12250000   0.11717969 
12260000  0.098104009 
12270000   0.10058367 
12280000   0.10061863 
12290000  0.095282505 
12300000   0.10297622 
12310000  0.097294605 
12320000   0.10657459 
12330000  0.099185553 
12340000   0.10282195 
12350000   0.10569193 
12360000   0.10494189 
12370000  0.095558398 
12380000  0.092562912 
12390000  0.098318814 
12400000   0.10908686 
12410000   0.10504769 
12420000   0.10045695 
12430000  0.096486006 
12440000   0.08960709 
12450000   0.10606065 
12460000  0.096335513 
12470000   0.10387827 
12480000   0.10280279 
12490000   0.10623002 
12500000  0.098661056 
12510000   0.10103809 
12520000  0.092191662 
12530000  0.099391075 
12540000   0.10136018 
12550000   0.11078063 
12560000  0.094356881 
12570000  0.096407234 
12580000   0.10605287 
12590000   0.10113218 
12600000  0.099207658 
12610000   0.10743831 
12620000   0.10044852 
12630000  0.098475435 
12640000   0.10843382 
12650000  0.095424905 
12660000  0.095191145 
12670000   0.10232312 
12680000   0.10472124 
12690000   0.10221339 
12700000   0.10208069 
12710000   0.10234622 
12720000   0.10800434 
12730000  0.098022904 
12740000  0.091107254 
12750000  0.088725409 
12760000   0.10479844 
12770000   0.10643673 
12780000   0.11040011 
12790000   0.10135118 
12800000  0.092433745 
12810000   0.10220134 
12820000   0.10588706 
12830000  0.094156439 
12840000   0.10520167 
12850000   0.11120596 
12860000  0.098664287 
12870000   0.10773162 
12880000  0.099214936 
12890000  0.094160339 
12900000   0.11743076 
12910000  0.098512233 
12920000  0.097141758 
12930000   0.10336103 
12940000   0.10269463 
12950000   0.10003367 
12960000  0.099426051 
12970000  0.099300477 
12980000   0.10282917 
12990000  0.091858289 
13000000   0.10459157 
13010000    0.1023117 
13020000  0.092783659 
13030000   0.10218712 
13040000  0.093107445 
13050000   0.10765406 
13060000   0.10534164 
13070000  0.095090115 
13080000    0.1104422 
13090000   0.10706741 
13100000    0.1030235 
13110000   0.10375493 
13120000   0.11247506 
13130000   0.10597825 
13140000  0.095733708 
13150000   0.10553547 
13160000  0.098246015 
13170000  0.097352488 
13180000   0.10283532 
13190000    0.1057874 
13200000  0.092331451 
13210000   0.10455474 
13220000  0.091378311 
13230000   0.10309123 
13240000   0.10503412 
13250000   0.10184852 
13260000    0.0946708 
13270000  0.094393922 
13280000  0.097012732 
13290000  0.099367401 
13300000  0.093728623 
13310000  0.097090448 
13320000   0.10784599 
13330000   0.10040327 
13340000   0.10301215 
13350000   0.10411262 
13360000   0.10221244 
13370000  0.093138431 
13380000   0.10931476 
13390000  0.092949173 
13400000  0.098163825 
13410000  0.097984211 
13420000   0.10202473 
13430000  0.098279697 
13440000  0.098457656 
13450000   0.10401951 
13460000  0.094776926 
13470000    0.1008581 
13480000  0.093723668 
13490000   0.10349513 
13500000   0.10686575 
13510000  0.099073232 
13520000   0.10193217 
13530000  0.092025537 
13540000   0.10311518 
13550000   0.10177982 
13560000   0.10319199 
13570000   0.10121721 
13580000   0.10266796 
13590000   0.10244648 
13600000   0.10614126 
13610000   0.10366349 
13620000  0.096955104 
13630000  0.097081827 
13640000   0.10217486 
13650000   0.10395071 
13660000   0.10331916 
13670000   0.10032058 
13680000  0.091507399 
13690000   0.10416747 
13700000  0.099407693 
13710000   0.11732927 
13720000   0.10155471 
13730000   0.10245858 
13740000   0.10290476 
13750000  0.098922475 
13760000   0.11134894 
13770000   0.10808471 
13780000   0.10528068 
13790000   0.10366811 
13800000  0.095287737 
13810000   0.10689594 
13820000   0.09746338 
13830000  0.097886839 
13840000  0.097723012 
13850000   0.10767707 
13860000  0.095537325 
13870000   0.10166429 
13880000  0.092756526 
13890000   0.10211415 
13900000   0.09226418 
13910000   0.10064333 
13920000   0.10109259 
13930000   0.10856386 
13940000   0.10045655 
13950000   0.10035692 
13960000   0.10396008 
13970000  0.096249371 
13980000  0.093633361 
13990000   0.10317244 
14000000   0.10528547 
14010000    0.1030658 
14020000   0.10257018 
14030000   0.10804245 
14040000  0.097973032 
14050000   0.10148225 
14060000   0.10524023 
14070000   0.10954291 
14080000   0.10284002 
14090000  0.097623739 
14100000   0.10147335 
14110000   0.10322787 
14120000  0.099862286 
14130000  0.096608114 
14140000  0.091322133 
14150000   0.10773136 
14160000   0.10062022 
14170000   0.10420978 
14180000   0.10333685 
14190000   0.10763325 
14200000  0.094308389 
14210000   0.10077869 
14220000  0.093849017 
14230000    0.1032838 
14240000   0.09734001 
14250000   0.10137563 
14260000   0.10337397 
14270000   0.10210008 
14280000   0.10956573 
14290000  0.097475084 
14300000   0.10685058 
14310000  0.093892134 
14320000    0.1051176 
14330000   0.10474915 
14340000  0.095192076 
14350000  0.097709546 
14360000    0.1032403 
14370000  0.095773882 
14380000   0.10351448 
14390000  0.094029885 
14400000   0.10274479 
14410000  0.091226998 
14420000   0.10537039 
14430000   0.09211246 
14440000   0.09898064 
14450000  0.096634997 
14460000  0.097667565 
14470000   0.10413115 
14480000   0.10746656 
14490000   0.09910405 
14500000   0.11254488 
14510000   0.10015251 
14520000  0.097119923 
14530000   0.10069987 
14540000   0.10659069 
14550000   0.10598191 
14560000  0.084517399 
14570000   0.10397306 
14580000   0.10308871 
14590000  0.097803812 
14600000  0.092003998 
14610000   0.10371553 
14620000   0.10339019 
14630000   0.10358508 
14640000    0.1041697 
14650000  0.099293792 
14660000  0.090876132 
14670000  0.098523573 
14680000  0.095401666 
14690000  0.095599858 
14700000  0.098407848 
14710000  0.097231125 
14720000    0.1071214 
14730000  0.097049703 
14740000   0.10542881 
14750000  0.096416034 
14760000   0.10563631 
14770000     0.103793 
14780000    0.1038781 
14790000  0.096533119 
14800000  0.095928011 
14810000  0.095873621 
14820000    0.1065364 
14830000  0.094693101 
14840000   0.09603599 
14850000  0.091911983 
14860000   0.10844483 
14870000   0.09941045 
14880000   0.11018694 
14890000   0.10135461 
14900000  0.091681171 
14910000   0.10245405 
14920000   0.10768937 
14930000    0.1034952 
14940000   0.10135711 
14950000   0.10033009 
14960000   0.10174111 
14970000  0.096199489 
14980000   0.11030925 
14990000  0.094939899 
15000000   0.10909835 
15010000   0.10852774 
15020000  0.098409496 
15030000  0.099478397 
15040000  0.094709875 
15050000   0.10180219 
15060000  0.098112359 
15070000   0.10189432 
15080000  0.091484571 
15090000   0.10279411 
15100000   0.10176771 
15110000  0.098491927 
15120000   0.10052372 
15130000  0.098102285 
15140000   0.10371963 
15150000  0.097528458 
15160000  0.087420279 
15170000  0.096751313 
15180000   0.09960615 
15190000   0.11107278 
15200000  0.099813187 
15210000  0.095451785 
15220000   0.11007946 
15230000   0.11057132 
15240000   0.10746617 
15250000  0.097826112 
15260000   0.09846493 
15270000  0.095562824 
15280000   0.10176637 
15290000   0.10088634 
15300000   0.10074818 
15310000   0.10280472 
15320000    0.1045319 
15330000  0.098290213 
15340000  0.098213367 
15350000   0.10484157 
15360000   0.10051018 
15370000   0.10463864 
15380000  0.097824662 
15390000   0.10392212 
15400000    0.1022818 
15410000    0.0976313 
15420000   0.10022224 
15430000   0.09567049 
15440000  0.098519696 
15450000   0.10342278 
15460000   0.10533791 
15470000  0.097770786 
15480000   0.10072502 
15490000   0.10113566 
15500000   0.10875566 
15510000   0.10263047 
15520000   0.10396597 
15530000   0.10279181 
15540000  0.099077513 
15550000  0.092784521 
15560000   0.10536988 
15570000   0.10263811 
15580000   0.09499685 
15590000  0.094651343 
15600000   0.10391288 
15610000   0.10550336 
15620000  0.098709324 
15630000   0.09665479 
15640000  0.092467857 
15650000   0.10452392 
15660000   0.10138885 
15670000   0.10335238 
15680000  0.099756802 
15690000   0.10834529 
15700000   0.10410559 
15710000   0.10466549 
15720000    0.1060684 
15730000  0.097509246 
15740000  0.096338678 
15750000   0.10530213 
15760000   0.10009819 
15770000   0.10079809 
15780000   0.10165867 
15790000   0.10422491 
15800000  0.097853475 
15810000  0.095729401 
15820000  0.097224733 
15830000  0.096668409 
15840000  0.099538935 
15850000  0.095101171 
15860000  0.091008866 
15870000   0.10740852 
15880000   0.10416824 
15890000  0.093653696 
15900000  0.092409021 
15910000  0.097104509 
15920000   0.10499292 
15930000  0.094966059 
15940000  0.099820955 
15950000   0.10150228 
15960000   0.10492402 
15970000  0.096176262 
15980000   0.10028476 
15990000   0.10798824 
16000000   0.10039512 
16010000   0.10046352 
16020000   0.10444201 
16030000  0.092095439 
16040000  0.091703805 
16050000  0.088296662 
16060000  0.097552161 
16070000  0.090484851 
16080000   0.10965759 
16090000   0.10053086 
16100000  0.094127719 
16110000   0.10175132 
16120000   0.11292701 
16130000  0.096794676 
16140000   0.10382437 
16150000   0.10334815 
16160000   0.10760085 
16170000   0.10809993 
16180000   0.10832389 
16190000  0.094305936 
16200000  0.094070786 
16210000   0.10345454 
16220000   0.10272124 
16230000   0.10478077 
16240000  0.097679719 
16250000  0.096814341 
16260000    0.1005035 
16270000   0.10202273 
16280000   0.10118865 
16290000   0.10493901 
16300000  0.085583862 
16310000  0.097464277 
16320000   0.10151314 
16330000  0.096852391 
16340000   0.10001452 
16350000  0.093533956 
16360000    0.1029093 
16370000   0.10993899 
16380000   0.10520406 
16390000    0.1023551 
16400000   0.10918023 
16410000   0.09491832 
16420000   0.10669457 
16430000  0.094086879 
16440000   0.10452569 
16450000   0.10283887 
16460000   0.09246333 
16470000  0.096676911 
16480000   0.10311456 
16490000   0.10433696 
16500000  0.096537073 
16510000  0.088654962 
16520000   0.10945594 
16530000  0.099107877 
16540000   0.10954101 
16550000   0.09570443 
16560000   0.10443767 
16570000   0.10043353 
16580000  0.095643603 
16590000   0.10294315 
16600000  0.095383132 
16610000  0.099869617 
16620000   0.10008234 
16630000  0.099508055 
16640000  0.095809166 
16650000   0.10085424 
16660000   0.10806978 
16670000   0.10125095 
16680000   0.10308623 
16690000  0.095756071 
16700000  0.094462057 
16710000   0.10184379 
16720000  0.089215836 
16730000  0.099726224 
16740000   0.10466205 
16750000   0.10081492 
16760000   0.10144692 
16770000   0.10350089 
16780000    0.1014894 
16790000  0.098708288 
16800000   0.10125067 
16810000   0.10172981 
16820000   0.10401426 
16830000  0.098138803 
16840000   0.10321999 
16850000   0.10455006 
16860000  0.090716843 
16870000  0.094858226 
16880000    0.0952734 
16890000   0.09879866 
16900000   0.10096531 
16910000   0.09931168 
16920000  0.099355098 
16930000    0.1087424 
16940000  0.098693747 
16950000   0.10717215 
16960000  0.096942098 
16970000   0.09742258 
16980000  0.097234024 
16990000  0.093850468 
17000000  0.098394329 
17010000  0.096248188 
17020000  0.098666753 
17030000   0.10894416 
17040000  0.090185313 
17050000   0.10041191 
17060000  0.092348034 
17070000   0.10754214 
17080000  0.099125242 
17090000  0.097308294 
17100000  0.099823249 
17110000   0.10439565 
17120000  0.094768085 
17130000   0.10478628 
17140000    0.0963783 
17150000   0.10671008 
17160000   0.10477539 
17170000   0.10419907 
17180000    0.1056106 
17190000  0.093611404 
17200000   0.09595013 
17210000  0.093410822 
17220000  0.093310392 
17230000  0.097188099 
17240000  0.095243294 
17250000  0.096322826 
17260000   0.10331007 
17270000  0.097452746 
17280000  0.094490345 
17290000   0.10246218 
17300000   0.10545394 
17310000  0.091764266 
17320000   0.10708904 
17330000   0.10822429 
17340000   0.10195642 
17350000   0.10665463 
17360000   0.10357633 
17370000   0.10096305 
17380000   0.10916056 
17390000  0.097395957 
17400000   0.10530541 
17410000  0.095164767 
17420000   0.10168784 
17430000  0.099257252 
17440000  0.096586335 
17450000  0.097829805 
17460000   0.09520295 
17470000  0.098225358 
17480000   0.10266048 
17490000  0.097347364 
17500000    0.1102619 
17510000   0.11072581 
17520000  0.097298163 
17530000   0.10221282 
17540000   0.10102376 
17550000   0.09807557 
17560000   0.10183707 
17570000  0.097507265 
17580000   0.10594943 
17590000   0.10521991 
17600000   0.10271337 
17610000  0.093728058 
17620000   0.10440548 
17630000    0.1078073 
17640000  0.096752964 
17650000   0.10735751 
17660000  0.094264938 
17670000  0.095874056 
17680000   0.11303846 
17690000   0.10792397 
17700000  0.098645671 
17710000  0.098171016 
17720000   0.09375786 
17730000   0.10176311 
17740000  0.092186857 
17750000   0.10217646 
17760000   0.09766263 
17770000  0.099689584 
17780000  0.097971984 
17790000  0.099661199 
17800000  0.097604317 
17810000   0.10451125 
17820000   0.10541437 
17830000  0.098878107 
17840000   0.10011097 
17850000  0.093791761 
17860000   0.10079492 
17870000   0.10966035 
17880000   0.09744681 
17890000  0.099870803 
17900000   0.10078837 
17910000     0.098361 
17920000   0.10596354 
17930000  0.097837111 
17940000   0.10318822 
17950000   0.10636209 
17960000  0.096536998 
17970000  0.098655403 
17980000   0.10022067 
17990000  0.099988496 
18000000   0.10296871 
18010000   0.10072501 
18020000   0.10013413 
18030000  0.098098371 
18040000   0.11133279 
18050000   0.10289855 
18060000    0.1028387 
18070000   0.10064811 
18080000   0.10455563 
18090000   0.10227226 
18100000  0.094328163 
18110000  0.090604533 
18120000  0.098956381 
18130000   0.10714925 
18140000   0.10310734 
18150000  0.093538788 
18160000   0.10455669 
18170000    0.0929437 
18180000   0.10339096 
18190000  0.095397326 
18200000   0.10103079 
18210000  0.093471176 
18220000  0.097734981 
18230000  0.098658066 
18240000  0.098797997 
18250000   0.10989619 
18260000  0.095459114 
18270000   0.10237118 
18280000  0.097407746 
18290000   0.10825073 
18300000   0.10303291 
18310000   0.09777875 
18320000  0.096324388 
18330000  0.098165521 
18340000   0.10316677 
18350000  0.096245546 
18360000  0.097310171 
18370000  0.099007887 
18380000   0.10717761 
18390000   0.10361432 
18400000   0.10075488 
18410000   0.10315879 
18420000  0.096313779 
18430000   0.10147613 
18440000  0.093093376 
18450000  0.099052398 
18460000  0.099461945 
18470000  0.097132886 
18480000  0.093926935 
18490000   0.10652606 
18500000   0.10134845 
18510000  0.096173794 
18520000   0.10100477 
18530000  0.089727396 
18540000  0.098101272 
18550000  0.096581937 
18560000   0.10982999 
18570000   0.10845361 
18580000   0.10180349 
18590000    0.1030693 
18600000   0.11199037 
18610000  0.094021404 
18620000   0.10761443 
18630000  0.097664175 
18640000   0.10240144 
18650000  0.090686737 
18660000   0.10558593 
18670000  0.094659234 
18680000  0.099358899 
18690000   0.10068317 
18700000    0.1009959 
18710000  0.095964199 
18720000   0.10955441 
18730000   0.10640573 
18740000   0.10287571 
18750000   0.10350377 
18760000  0.091978814 
18770000   0.10288541 
18780000   0.10011399 
18790000   0.10120173 
18800000   0.10521577 
18810000   0.10156801 
18820000   0.10437882 
18830000  0.096535014 
18840000   0.10025278 
18850000   0.10026189 
18860000  0.099612082 
18870000   0.10271696 
18880000   0.10289422 
18890000    0.1015249 
18900000  0.096401985 
18910000  0.092754645 
18920000  0.092160777 
18930000  0.097300509 
18940000   0.10437443 
18950000  0.095327179 
18960000   0.10378969 
18970000  0.098657017 
18980000  0.090213771 
18990000  0.096910366 
19000000  0.096242268 
19010000  0.098556708 
19020000  0.096175673 
19030000  0.099055198 
19040000  0.096667127 
19050000   0.10919101 
19060000  0.096777294 
19070000   0.10833607 
19080000   0.10758565 
19090000   0.10260338 
19100000   0.10343135 
19110000   0.10151452 
19120000  0.098791805 
19130000  0.098577596 
19140000   0.09683524 
19150000  0.097727561 
19160000  0.094304137 
19170000   0.10078836 
19180000   0.10491096 
19190000  0.097089313 
19200000    0.1015119 
19210000   0.10469929 
19220000   0.10404429 
19230000   0.10176484 
19240000   0.10144413 
19250000   0.10131346 
19260000   0.10677787 
19270000  0.093956635 
19280000  0.095773767 
19290000    0.1164254 
19300000   0.10725407 
19310000   0.10705908 
19320000    0.1017519 
19330000    0.1068449 
19340000   0.10457153 
19350000  0.093519499 
19360000   0.10542034 
19370000  0.099012788 
19380000   0.10439234 
19390000  0.099776661 
19400000   0.10001005 
19410000  0.097189227 
19420000   0.10453064 
19430000   0.11098437 
19440000   0.10235193 
19450000  0.091695688 
19460000  0.099059634 
19470000  0.092269288 
19480000   0.10627662 
19490000   0.10251038 
19500000   0.10867671 
19510000   0.10493094 
19520000  0.096043418 
19530000  0.092663695 
19540000   0.10483931 
19550000  0.098878014 
19560000   0.10412668 
19570000   0.10934654 
19580000   0.10730144 
19590000  0.099114216 
19600000   0.10734021 
19610000  0.092999997 
19620000    0.1053977 
19630000  0.095000253 
19640000  0.093428153 
19650000  0.096168297 
19660000  0.091853231 
19670000  0.094916085 
19680000   0.10632928 
19690000  0.094939094 
19700000   0.10552522 
19710000   0.10252181 
19720000  0.091413359 
19730000   0.10211376 
19740000   0.09921139 
19750000   0.10306238 
19760000  0.099134672 
19770000  0.098634193 
19780000  0.099740695 
19790000   0.10478404 
19800000  0.096759398 
19810000  0.099526142 
19820000   0.10405803 
19830000   0.11044846 
19840000   0.10335822 
19850000   0.10183763 
19860000   0.10900862 
19870000   0.10292096 
19880000  0.096431847 
19890000   0.10655819 
19900000   0.10043524 
19910000   0.10488634 
19920000   0.09931135 
19930000    0.1006373 
19940000   0.10259004 
19950000  0.091244535 
19960000   0.10401666 
19970000   0.10141497 
19980000  0.099175045 
19990000    0.1068975 
20000000   0.11064862 
20010000  0.094448784 
20020000   0.10362943 
20030000   0.10029744 
20040000   0.10242571 
20050000   0.10109289 
20060000   0.10301233 
20070000   0.10603001 
20080000   0.10726607 
20090000   0.10066218 
20100000  0.099002007 
20110000   0.10134996 
20120000   0.09415609 
20130000   0.10392874 
20140000  0.098384543 
20150000  0.092885748 
20160000   0.10462503 
20170000   0.10597811 
20180000   0.09866585 
20190000    0.1009311 
20200000   0.10892365 
20210000   0.10669591 
20220000   0.10572718 
20230000   0.10323347 
20240000   0.10648859 
20250000   0.09465824 
20260000    0.1018629 
20270000  0.099498314 
20280000   0.10059368 
20290000  0.096421119 
20300000   0.10215285 
20310000   0.10944476 
20320000  0.098708448 
20330000  0.096990408 
20340000   0.10320348 
20350000  0.099819326 
20360000    0.1009417 
20370000   0.10032108 
20380000    0.1095569 
20390000  0.087724044 
20400000   0.10453573 
20410000   0.10071535 
20420000  0.095163493 
20430000  0.098852017 
20440000  0.095246671 
20450000   0.10576384 
20460000   0.10053232 
20470000   0.10330554 
20480000   0.10603934 
20490000   0.10018467 
20500000   0.10436373 
20510000   0.10309271 
20520000  0.088102622 
20530000  0.099118635 
20540000  0.087155634 
20550000  0.089602353 
20560000   0.11416824 
20570000  0.093697334 
20580000   0.09002145 
20590000   0.10337508 
20600000  0.097819526 
20610000   0.09384186 
20620000   0.10757259 
20630000  0.094751794 
20640000   0.10629426 
20650000   0.10652734 
20660000  0.099338864 
20670000  0.098259801 
20680000  0.099659073 
20690000   0.10234047 
20700000   0.10546893 
20710000  0.098659598 
20720000    0.1017284 
20730000   0.10316301 
20740000    0.1016627 
20750000   0.11490646 
20760000  0.099960022 
20770000  0.098085978 
20780000   0.10282141 
20790000   0.11432327 
20800000   0.11714401 
20810000   0.10527456 
20820000  0.097450349 
20830000  0.098197674 
20840000  0.096256127 
20850000   0.09724171 
20860000  0.099489568 
20870000  0.099791443 
20880000  0.091130985 
20890000  0.097906263 
20900000   0.08859552 
20910000  0.093159635 
20920000   0.10069679 
20930000  0.098994421 
20940000  0.093110286 
20950000   0.10101258 
20960000  0.099646313 
20970000   0.11097883 
20980000   0.10057154 
20990000   0.09785776 
21000000  0.092377835 
21010000  0.092004824 
21020000  0.097354704 
21030000   0.10550805 
21040000   0.10824714 
21050000  0.099743384 
21060000   0.10673707 
21070000   0.10031202 
21080000  0.097180643 
21090000   0.10624503 
21100000  0.099445333 
21110000   0.10651672 
21120000   0.10192693 
21130000  0.093908516 
21140000   0.10112151 
21150000   0.10222767 
21160000  0.092892868 
21170000   0.10250197 
21180000   0.10665207 
21190000  0.093533295 
21200000   0.10295922 
21210000   0.10568582 
21220000  0.095280301 
21230000  0.094366226 
21240000  0.097922158 
21250000   0.10419857 
21260000  0.093670084 
21270000  0.089021798 
21280000   0.10849923 
21290000   0.10117019 
21300000   0.10152358 
21310000   0.10248118 
21320000   0.10650696 
21330000   0.10363795 
21340000   0.10345286 
21350000   0.10831834 
21360000  0.098728388 
21370000  0.092696141 
21380000  0.098507156 
21390000   0.10306171 
21400000  0.098880467 
21410000   0.10463964 
21420000    0.1041223 
21430000   0.09746142 
21440000  0.097585036 
21450000   0.11088356 
21460000  0.097540572 
21470000   0.09175724 
21480000  0.086942148 
21490000   0.09670195 
21500000   0.10276302 
21510000  0.092996325 
21520000   0.10303124 
21530000   0.11009223 
21540000  0.090189377 
21550000  0.099080152 
21560000   0.10662831 
21570000  0.099030459 
21580000  0.091882103 
21590000  0.097318799 
21600000   0.10445137 
21610000   0.09677135 
21620000  0.098273148 
21630000   0.10371201 
21640000   0.10462571 
21650000  0.089632131 
21660000    0.1135887 
21670000   0.10939632 
21680000   0.10882159 
21690000   0.10105841 
21700000  0.096778626 
21710000  0.097865585 
21720000  0.095248157 
21730000   0.10022699 
21740000  0.096720858 
21750000   0.10026013 
21760000  0.096014827 
21770000   0.11880507 
21780000   0.10761975 
21790000   0.10271736 
21800000   0.10268558 
21810000  0.095752322 
21820000   0.10486963 
21830000  0.096116031 
21840000   0.10330995 
21850000  0.096925309 
21860000   0.10262055 
21870000   0.10320486 
21880000  0.097449014 
21890000   0.10487663 
21900000    0.1024066 
21910000  0.098208053 
21920000  0.098779414 
21930000  0.097325267 
21940000   0.10091914 
21950000  0.098284031 
21960000   0.10581603 
21970000  0.099957254 
21980000   0.10389846 
21990000   0.10589657 
22000000    0.1021285 
22010000   0.10399004 
22020000  0.099324732 
22030000  0.099059977 
22040000   0.10140198 
22050000   0.10620933 
22060000   0.10412393 
22070000   0.10767137 
22080000  0.099021381 
22090000   0.10292802 
22100000  0.096151073 
22110000  0.099114562 
22120000   0.09481718 
22130000   0.10267655 
22140000   0.10015977 
22150000   0.10124165 
22160000   0.10238385 
22170000   0.10261032 
22180000  0.098827421 
22190000  0.096291116 
22200000   0.10886042 
22210000   0.10545961 
22220000  0.095851036 
22230000   0.10197481 
22240000   0.09770343 
22250000   0.11199858 
22260000  0.098955332 
22270000  0.099898612 
22280000   0.10517484 
22290000   0.09874405 
22300000   0.10101703 
22310000  0.096146241 
22320000  0.095923638 
22330000  0.097804403 
22340000   0.10173437 
22350000  0.098456045 
22360000    0.1025914 
22370000  0.096976288 
22380000   0.10387137 
22390000   0.09355966 
22400000   0.10261559 
22410000    0.1101243 
22420000   0.10848675 
22430000   0.10480239 
22440000  0.098578529 
22450000  0.099616323 
22460000   0.10170286 
22470000  0.098520183 
22480000   0.09544334 
22490000  0.094797199 
22500000  0.095927252 
22510000  0.093013913 
22520000   0.10767547 
22530000   0.10956494 
22540000    0.1058546 
22550000   0.10240653 
22560000   0.10363923 
22570000  0.095021125 
22580000  0.092283888 
22590000  0.099300992 
22600000   0.10408374 
22610000  0.096045504 
22620000   0.10485099 
22630000  0.096266879 
22640000  0.098976712 
22650000   0.10516273 
22660000   0.10333738 
22670000  0.099216793 
22680000  0.090764719 
22690000  0.093199636 
22700000   0.10688642 
22710000  0.091780198 
22720000   0.10589302 
22730000   0.10487227 
22740000  0.099269664 
22750000    0.1013943 
22760000  0.099862096 
22770000   0.10375984 
22780000   0.10415973 
22790000   0.10147424 
22800000   0.10094306 
22810000  0.094514663 
22820000   0.10037847 
22830000   0.10314139 
22840000  0.089657191 
22850000  0.092177906 
22860000   0.10782027 
22870000   0.10548164 
22880000   0.10511023 
22890000   0.10179896 
22900000  0.099575406 
22910000  0.099930507 
22920000  0.096457863 
22930000   0.10120839 
22940000   0.10666762 
22950000  0.096471038 
22960000   0.10637485 
22970000  0.099484068 
22980000  0.096620897 
22990000   0.09451514 
23000000   0.10323055 
23010000    0.1036737 
23020000  0.095839147 
23030000  0.097554542 
23040000  0.095954378 
23050000   0.10788247 
23060000   0.10070603 
23070000   0.10376899 
23080000  0.086864155 
23090000  0.096950331 
23100000  0.097390573 
23110000   0.11214644 
23120000   0.10090992 
23130000  0.096124855 
23140000  0.093958095 
23150000   0.10790979 
23160000   0.10601364 
23170000  0.098240358 
23180000  0.098356023 
23190000   0.10773945 
23200000   0.10166856 
23210000    0.1077813 
23220000  0.097765843 
23230000   0.10335917 
23240000   0.10084371 
23250000   0.10006044 
23260000  0.099326836 
23270000   0.10799905 
23280000   0.10230841 
23290000   0.10573732 
23300000  0.099828217 
23310000  0.092292514 
23320000   0.09769746 
23330000   0.10014241 
23340000   0.10779551 
23350000   0.10709416 
23360000   0.10162736 
23370000   0.10180285 
23380000   0.10087974 
23390000  0.098377031 
23400000   0.10203686 
23410000  0.094098102 
23420000  0.091965687 
23430000   0.10667943 
23440000   0.10999214 
23450000  0.099329039 
23460000    0.1170955 
23470000  0.097949749 
23480000  0.089215848 
23490000  0.094404292 
23500000  0.096166097 
23510000   0.10313568 
23520000   0.09898888 
23530000  0.098719208 
23540000   0.09522354 
23550000   0.10064227 
23560000   0.10230158 
23570000  0.083329972 
23580000  0.096441333 
23590000   0.10277455 
23600000  0.099742908 
23610000   0.10055413 
23620000   0.10117397 
23630000   0.10760437 
23640000   0.09568257 
23650000   0.10735314 
23660000   0.10992479 
23670000  0.092984323 
23680000  0.098321455 
23690000  0.092033599 
23700000   0.10254116 
23710000   0.10180169 
23720000  0.094419507 
23730000   0.10414216 
23740000  0.098576738 
23750000  0.094896928 
23760000  0.098301428 
23770000    0.1057722 
23780000   0.11081474 
23790000  0.098067717 
23800000  0.097371902 
23810000   0.11987507 
23820000   0.11057874 
23830000    0.1021283 
23840000   0.10855914 
23850000  0.094697285 
23860000  0.093113904 
23870000   0.10851937 
23880000  0.092408101 
23890000  0.098641875 
23900000  0.094387313 
23910000   0.10451531 
23920000   0.11261174 
23930000   0.10513028 
23940000  0.089555774 
23950000  0.099660234 
23960000    0.1015888 
23970000  0.094719371 
23980000  0.090811204 
23990000   0.10981941 
24000000  0.095295608 
24010000  0.098097757 
24020000   0.10599637 
24030000     0.094842 
24040000   0.10237309 
24050000  0.092198762 
24060000   0.10544125 
24070000  0.098744621 
24080000  0.096041391 
24090000   0.10337448 
24100000   0.10657191 
24110000  0.096497785 
24120000    0.1031827 
24130000  0.091589813 
24140000  0.097038633 
24150000   0.10731135 
24160000  0.099060908 
24170000   0.10315872 
24180000  0.098056638 
24190000  0.097142943 
24200000   0.10290103 
24210000   0.10022888 
24220000  0.094682887 
24230000  0.096520976 
24240000    0.1001807 
24250000   0.10216157 
24260000   0.10322952 
24270000   0.10479688 
24280000  0.097136739 
24290000  0.099857149 
24300000  0.092858979 
24310000  0.092933238 
24320000  0.089167672 
24330000   0.10446031 
24340000   0.10305286 
24350000   0.10126416 
24360000  0.094230119 
24370000   0.09718796 
24380000   0.11072492 
24390000   0.10052848 
24400000   0.10310596 
24410000   0.09448179 
24420000   0.10307353 
24430000   0.10517063 
24440000  0.097594032 
24450000   0.10489217 
24460000   0.10345259 
24470000   0.10900792 
24480000    0.1034837 
24490000   0.10392777 
24500000  0.099125294 
24510000   0.10170922 
24520000    0.0976906 
24530000  0.093191025 
24540000    0.1073767 
24550000  0.092189215 
24560000    0.1061804 
24570000  0.096812275 
24580000   0.10290362 
24590000   0.10409904 
24600000  0.092225416 
24610000  0.092169383 
24620000  0.098235863 
24630000  0.099965627 
24640000   0.09972477 
24650000  0.095450355 
24660000   0.10737606 
24670000  0.098094632 
24680000  0.093067637 
24690000  0.093058961 
24700000   0.10140359 
24710000   0.10006092 
24720000  0.095129623 
24730000  0.098825628 
24740000   0.10161155 
24750000   0.10657716 
24760000  0.096019304 
24770000   0.10149695 
24780000  0.096263511 
24790000   0.10580491 
24800000  0.098913735 
24810000   0.10317208 
24820000   0.10178681 
24830000  0.098387269 
24840000  0.097248453 
24850000  0.096325353 
24860000   0.10091488 
24870000   0.10115042 
24880000   0.10166205 
24890000   0.10108102 
24900000  0.098661395 
24910000   0.10556547 
24920000  0.090486067 
24930000   0.09423675 
24940000  0.097217558 
24950000  0.096494839 
24960000  0.088112115 
24970000   0.09957572 
24980000  0.099773522 
24990000   0.09607975 
25000000  0.098389426 
25010000   0.10476108 
25020000   0.10756999 
25030000  0.094750393 
25040000  0.099262592 
25050000   0.10524182 
25060000    0.1037115 
25070000  0.099741549 
25080000   0.10501099 
25090000   0.10664152 
25100000   0.10618324 
25110000   0.10148257 
25120000  0.093641206 
25130000  0.097252093 
25140000   0.10406272 
25150000  0.096086339 
25160000   0.10332748 
25170000  0.091708138 
25180000  0.086904065 
25190000   0.10485724 
25200000   0.10324659 
25210000  0.097201912 
25220000   0.10130308 
25230000   0.09359645 
25240000  0.095840597 
25250000   0.10257772 
25260000   0.10355612 
25270000  0.092251284 
25280000  0.096733167 
25290000  0.094439251 
25300000  0.096440678 
25310000  0.093796492 
25320000   0.10187549 
25330000  0.094940638 
25340000  0.099421252 
25350000   0.10141184 
25360000  0.095999976 
25370000  0.099109739 
25380000  0.095779107 
25390000  0.099796194 
25400000  0.097729102 
25410000  0.097242101 
25420000    0.1047555 
25430000  0.098801588 
25440000   0.10105947 
25450000   0.09535105 
25460000  0.088411836 
25470000  0.093557179 
25480000  0.099602635 
25490000   0.10468428 
25500000   0.10435318 
25510000   0.10931905 
25520000   0.10813793 
25530000  0.095941833 
25540000   0.10596376 
25550000  0.099389798 
25560000  0.085129614 
25570000   0.10027977 
25580000  0.092781924 
25590000   0.09845249 
25600000   0.10157572 
25610000   0.10271116 
25620000   0.10198608 
25630000   0.09741616 
25640000    0.1006666 
25650000  0.096625454 
25660000    0.1028714 
25670000   0.10472705 
25680000  0.094924415 
25690000   0.10245987 
25700000   0.11451867 
25710000   0.10060162 
25720000   0.10446242 
25730000   0.10413545 
25740000  0.096158192 
25750000   0.10152906 
25760000  0.098423483 
25770000   0.10488476 
25780000  0.093110852 
25790000  0.094752668 
25800000   0.10820677 
25810000   0.10668792 
25820000  0.094176385 
25830000   0.10055557 
25840000   0.10097863 
25850000   0.10197379 
25860000  0.095883373 
25870000   0.10152983 
25880000  0.099465716 
25890000   0.10733953 
25900000  0.096315951 
25910000   0.10035208 
25920000     0.107537 
25930000   0.09433197 
25940000  0.094811904 
25950000  0.092926086 
25960000  0.098835445 
25970000   0.10367744 
25980000  0.099864712 
25990000   0.11044765 
26000000  0.095173509 
26010000  0.096814307 
26020000   0.10820388 
26030000   0.10656035 
26040000    0.1003718 
26050000  0.095096523 
26060000   0.10487149 
26070000    0.1017205 
26080000   0.10381822 
26090000  0.097802248 
26100000   0.10619877 
26110000    0.1065121 
26120000   0.10055126 
26130000  0.099024041 
26140000  0.092245388 
26150000  0.098593556 
26160000  0.090357803 
26170000  0.091120086 
26180000   0.10475245 
26190000   0.10997604 
26200000   0.10946507 
26210000  0.089777098 
26220000   0.10507743 
26230000  0.097945747 
26240000   0.10588253 
26250000  0.093600066 
26260000  0.096231287 
26270000  0.099152442 
26280000   0.10198786 
26290000    0.1093945 
26300000  0.095649046 
26310000   0.10633514 
26320000    0.1023013 
26330000  0.094853973 
26340000   0.11029804 
26350000  0.091688212 
26360000   0.11018632 
26370000   0.09890274 
26380000   0.10010654 
26390000  0.099540963 
26400000   0.10617986 
26410000   0.10225126 
26420000  0.086466922 
26430000   0.10087369 
26440000   0.10316171 
26450000   0.10407412 
26460000   0.11202147 
26470000   0.10248555 
26480000  0.097877391 
26490000   0.10606152 
26500000    0.1023335 
26510000   0.10208386 
26520000  0.097203611 
26530000  0.097107557 
26540000    0.1026372 
26550000   0.10902722 
26560000   0.09801055 
26570000   0.10095074 
26580000  0.097062997 
26590000   0.10080136 
26600000   0.10479673 
26610000   0.10211475 
26620000   0.10248474 
26630000    0.1031715 
26640000  0.096888823 
26650000  0.098760148 
26660000   0.10511751 
26670000   0.10118919 
26680000   0.10552176 
26690000   0.11194869 
26700000  0.099820254 
26710000   0.10233902 
26720000    0.1088189 
26730000  0.093458418 
26740000  0.098501043 
26750000  0.098011735 
26760000   0.10024042 
26770000   0.10775522 
26780000   0.09619051 
26790000   0.10010608 
26800000  0.095728702 
26810000   0.10024188 
26820000  0.096904969 
26830000  0.089680315 
26840000    0.1063464 
26850000   0.10486952 
26860000  0.094173195 
26870000   0.10549507 
26880000  0.086523682 
26890000   0.10373486 
26900000  0.098000297 
26910000  0.098544255 
26920000    0.1106211 
26930000   0.10100743 
26940000   0.10288362 
26950000   0.10262571 
26960000   0.08912225 
26970000  0.098311074 
26980000   0.10271094 
26990000  0.098805675 
27000000  0.097296707 
27010000   0.10613657 
27020000  0.093875819 
27030000  0.095654127 
27040000   0.10473234 
27050000   0.11253702 
27060000   0.10034094 
27070000   0.10642004 
27080000  0.097697464 
27090000  0.092609363 
27100000   0.10314903 
27110000   0.10352193 
27120000  0.093229022 
27130000  0.095486389 
27140000  0.091657169 
27150000   0.09431636 
27160000   0.10368868 
27170000   0.10302097 
27180000  0.095411122 
27190000  0.092512582 
27200000   0.10232791 
27210000  0.093350179 
27220000   0.10342204 
27230000   0.11063302 
27240000   0.10082023 
27250000   0.10052525 
27260000  0.096031389 
27270000   0.10173499 
27280000   0.10435121 
27290000   0.10631652 
27300000  0.095638689 
27310000    0.1011846 
27320000    0.1014617 
27330000  0.095883926 
27340000   0.10537828 
27350000   0.11158612 
27360000   0.09209643 
27370000   0.10005133 
27380000  0.097644723 
27390000  0.096933551 
27400000  0.098795761 
27410000  0.095108541 
27420000  0.096693483 
27430000   0.10969564 
27440000  0.092915411 
27450000     0.100269 
27460000   0.10879534 
27470000  0.097086681 
27480000  0.096125346 
27490000  0.098079208 
27500000  0.099260904 
27510000   0.10127296 
27520000   0.10215808 
27530000  0.095685339 
27540000   0.10133559 
27550000  0.092792023 
27560000   0.10431254 
27570000  0.092289526 
27580000  0.094376842 
27590000    0.1085905 
27600000  0.096746472 
27610000   0.10137042 
27620000  0.097499599 
27630000  0.098148634 
27640000  0.098970111 
27650000   0.10722603 
27660000   0.10204003 
27670000  0.093281994 
27680000   0.10014305 
27690000   0.10073718 
27700000   0.10120617 
27710000    0.1049638 
27720000     0.101162 
27730000  0.096890602 
27740000  0.095161209 
27750000   0.10502232 
27760000  0.098753497 
27770000  0.099042213 
27780000   0.10462538 
27790000  0.098372553 
27800000   0.10055852 
27810000  0.092292019 
27820000   0.10299942 
27830000  0.099478236 
27840000  0.095685655 
27850000   0.10633691 
27860000  0.094004219 
27870000  0.097524459 
27880000   0.10188908 
27890000  0.098376321 
27900000  0.092203892 
27910000  0.098553194 
27920000   0.10611943 
27930000   0.10060042 
27940000   0.10739095 
27950000   0.10398423 
27960000  0.098778551 
27970000    0.1150321 
27980000   0.11146251 
27990000  0.098956818 
28000000   0.10541296 
28010000  0.093499263 
28020000  0.095942272 
28030000   0.10441017 
28040000   0.10306183 
28050000  0.098290502 
28060000   0.10462753 
28070000   0.10870041 
28080000   0.10668829 
28090000   0.10080176 
28100000  0.097129734 
28110000  0.098532237 
28120000  0.094579769 
28130000  0.093651008 
28140000   0.10494332 
28150000   0.10435701 
28160000    0.1014479 
28170000  0.094510883 
28180000   0.10184168 
28190000   0.10370595 
28200000  0.099969117 
28210000   0.10444699 
28220000  0.095634542 
28230000  0.097491716 
28240000  0.095561258 
28250000  0.094214362 
28260000   0.10169278 
28270000  0.095446985 
28280000    0.1028201 
28290000  0.087466867 
28300000  0.095990095 
28310000  0.096925356 
28320000   0.10634267 
28330000  0.092861581 
28340000   0.10099588 
28350000  0.093422441 
28360000   0.10386577 
28370000   0.10054733 
28380000  0.097779952 
28390000   0.10452881 
28400000   0.10115079 
28410000   0.10679248 
28420000  0.098485302 
28430000   0.10058185 
28440000  0.091657609 
28450000   0.10505492 
28460000   0.10121018 
28470000  0.099594403 
28480000    0.1035598 
28490000   0.10461716 
28500000  0.091978464 
28510000  0.099034239 
28520000  0.099736803 
28530000  0.095815494 
28540000   0.09833493 
28550000  0.093372875 
28560000   0.10011334 
28570000  0.092405787 
28580000     0.100258 
28590000  0.095831722 
28600000   0.09545748 
28610000   0.09516695 
28620000   0.10096502 
28630000   0.10023579 
28640000  0.095466261 
28650000   0.10326896 
28660000     0.101037 
28670000   0.10008564 
28680000  0.095871296 
28690000  0.096574294 
28700000   0.10066592 
28710000   0.10087841 
28720000   0.10098294 
28730000   0.10028035 
28740000  0.089328406 
28750000  0.092611231 
28760000   0.10324668 
28770000   0.10377636 
28780000   0.10061685 
28790000   0.10798649 
28800000  0.094304319 
28810000  0.093767529 
28820000   0.10064101 
28830000    0.1016614 
28840000    0.0994386 
28850000  0.099976891 
28860000    0.0969475 
28870000   0.10165803 
28880000   0.10663947 
28890000   0.10917393 
28900000  0.098810505 
28910000  0.097431202 
28920000  0.097261424 
28930000   0.10238799 
28940000   0.10109587 
28950000   0.11310937 
28960000   0.09975135 
28970000   0.10441956 
28980000   0.10505217 
28990000   0.08943163 
29000000    0.1007489 
29010000  0.097398174 
29020000  0.099329923 
29030000   0.10884089 
29040000  0.095409738 
29050000  0.099699501 
29060000   0.10043288 
29070000  0.098506911 
29080000   0.11355836 
29090000  0.092051977 
29100000  0.097580693 
29110000  0.099051547 
29120000  0.095161093 
29130000   0.10817841 
29140000  0.098054045 
29150000   0.10668283 
29160000   0.11040744 
29170000   0.10092112 
29180000   0.10596245 
29190000  0.096739485 
29200000    0.1082028 
29210000  0.088363844 
29220000  0.097006626 
29230000   0.10261542 
29240000   0.10286623 
29250000   0.09427548 
29260000   0.10215318 
29270000   0.10145884 
29280000   0.10731532 
29290000  0.093563898 
29300000  0.089150921 
29310000  0.097425295 
29320000   0.10231117 
29330000   0.10093021 
29340000   0.09803579 
29350000   0.10189768 
29360000   0.10786689 
29370000   0.10016816 
29380000  0.096869288 
29390000  0.099304324 
29400000   0.10662172 
29410000  0.094159371 
29420000  0.098614582 
29430000  0.099910936 
29440000   0.10535259 
29450000   0.10291015 
29460000   0.10495022 
29470000  0.096192301 
29480000   0.10216511 
29490000   0.10481755 
29500000    0.1003719 
29510000   0.10302232 
29520000   0.10459219 
29530000  0.095334755 
29540000   0.10629075 
29550000  0.099839896 
29560000  0.091526547 
29570000  0.091071717 
29580000  0.091376776 
29590000   0.10550041 
29600000   0.10358488 
29610000  0.099202807 
29620000  0.098753313 
29630000  0.095360623 
29640000   0.10783163 
29650000   0.10123488 
29660000   0.09894517 
29670000  0.095771793 
29680000  0.092582306 
29690000   0.10168848 
29700000  0.092465273 
29710000  0.095619723 
29720000   0.10391055 
29730000  0.097584104 
29740000  0.096596921 
29750000   0.10252902 
29760000   0.10808857 
29770000   0.10325085 
29780000   0.10081723 
29790000   0.10532983 
29800000   0.10907827 
29810000   0.10172492 
29820000  0.097513089 
29830000  0.094181105 
29840000   0.10279605 
29850000  0.099861447 
29860000  0.091139185 
29870000  0.096691502 
29880000   0.10493042 
29890000   0.10348649 
29900000   0.10080547 
29910000   0.10355531 
29920000   0.10650591 
29930000   0.10252107 
29940000   0.11384119 
29950000   0.09697779 
29960000  0.099606717 
[...]
319010000  0.097880281 
319020000   0.09851561 
319030000  0.097613046 
319040000  0.095196807 
319050000    0.1042321 
319060000   0.10062222 
319070000  0.097574735 
319080000  0.098072157 
319090000  0.089657954 
319100000   0.10713873 
319110000   0.10278069 
319120000   0.09811792 
319130000  0.095303103 
319140000  0.097347201 
319150000  0.088011639 
319160000   0.10400146 
319170000   0.10056622 
319180000  0.099505956 
319190000   0.11484548 
319200000  0.088748405 
319210000   0.10655475 
319220000    0.0901021 
319230000   0.10110433 
319240000   0.10853363 
319250000  0.095600475 
319260000   0.10638764 
319270000  0.092298986 
319280000   0.10353349 
319290000   0.10437638 
319300000  0.096637693 
319310000  0.093195324 
319320000   0.10756404 
319330000  0.098634432 
319340000   0.10036914 
319350000   0.10997504 
319360000   0.09839793 
319370000  0.094019566 
319380000   0.10531762 
319390000  0.096233728 
319400000  0.097959622 
319410000  0.096083844 
319420000  0.095552387 
319430000   0.10488251 
319440000  0.099278995 
319450000   0.10227066 
319460000   0.10241218 
319470000  0.098720775 
319480000  0.099403097 
319490000   0.10160138 
319500000  0.092460692 
319510000  0.091743754 
319520000  0.095713222 
319530000   0.10876365 
319540000  0.095155814 
319550000  0.095847062 
319560000  0.092600358 
319570000  0.098631249 
319580000   0.10208747 
319590000   0.10226577 
319600000  0.097087849 
319610000   0.10647278 
319620000  0.094138742 
319630000  0.096638125 
319640000   0.10097575 
319650000   0.10072867 
319660000   0.10904353 
319670000   0.10179773 
319680000  0.097386128 
319690000   0.10543837 
319700000   0.10278942 
319710000   0.11396725 
319720000   0.09366124 
319730000   0.09918747 
319740000   0.10167082 
319750000   0.10191489 
319760000  0.094986593 
319770000    0.1044682 
319780000   0.10125274 
319790000   0.10155297 
319800000   0.10464843 
319810000   0.11505725 
319820000  0.098239351 
319830000  0.097245777 
319840000  0.096821685 
319850000  0.096296336 
319860000   0.10071935 
319870000   0.10112316 
319880000   0.10845179 
319890000   0.10269151 
319900000   0.10763962 
319910000  0.098644285 
319920000   0.10162484 
319930000  0.091426155 
319940000  0.084216662 
319950000   0.11036138 
319960000  0.089368496 
319970000   0.10031574 
319980000  0.096532037 
319990000   0.10889197 
320000000  0.097983288 
320010000  0.099414699 
320020000   0.11360878 
320030000  0.091858512 
320040000   0.11891824 
320050000  0.098899461 
320060000   0.10130411 
320070000   0.10060256 
320080000   0.10279092 
320090000   0.10041371 
320100000    0.1010809 
320110000   0.10107826 
320120000   0.10369493 
320130000   0.10611646 
320140000  0.092174625 
320150000  0.099990314 
320160000  0.096372728 
320170000   0.10305719 
320180000  0.098710678 
320190000   0.10132085 
320200000   0.10729351 
320210000   0.10540786 
320220000    0.1015015 
320230000   0.10022976 
320240000  0.093505962 
320250000   0.10438513 
320260000   0.10407646 
320270000   0.10022333 
320280000  0.097273797 
320290000  0.098577623 
320300000       0.1035 
320310000   0.11036086 
320320000   0.10393007 
320330000  0.099282694 
320340000   0.10780118 
320350000   0.09609773 
320360000   0.10397592 
320370000  0.096546029 
320380000  0.097367501 
320390000  0.091696989 
320400000   0.10176798 
320410000  0.097558892 
320420000   0.10451523 
320430000   0.10364498 
320440000   0.10190531 
320450000   0.11459524 
320460000   0.10150618 
320470000  0.085826715 
320480000   0.10241081 
320490000   0.10525119 
320500000  0.092546221 
320510000   0.10405297 
320520000   0.10463865 
320530000  0.096645586 
320540000  0.096846955 
320550000   0.11164424 
320560000  0.089029867 
320570000  0.097352512 
320580000  0.097291134 
320590000   0.11226447 
320600000   0.11049308 
320610000   0.10516021 
320620000  0.098706852 
320630000   0.10078056 
320640000   0.10844784 
320650000  0.094405393 
320660000   0.10152314 
320670000  0.097138436 
320680000  0.095944574 
320690000   0.10756321 
320700000  0.095303273 
320710000   0.10432629 
320720000   0.11431641 
320730000   0.10808016 
320740000  0.097431787 
320750000   0.10020983 
320760000  0.095221566 
320770000  0.091607911 
320780000   0.10398293 
320790000  0.094966173 
320800000   0.11096276 
320810000   0.11127324 
320820000   0.10234237 
320830000   0.09888777 
320840000  0.095274819 
320850000  0.088848984 
320860000   0.10311739 
320870000  0.097672143 
320880000  0.090617415 
320890000   0.10333159 
320900000  0.094313151 
320910000  0.091474613 
320920000  0.098710652 
320930000  0.099706999 
320940000   0.10422613 
320950000  0.096452541 
320960000  0.098647045 
320970000   0.10117016 
320980000   0.11152026 
320990000  0.093122915 
321000000   0.10249731 
321010000   0.10066445 
321020000  0.095052946 
321030000  0.096705822 
321040000  0.096586974 
321050000   0.10452379 
321060000   0.10740358 
321070000  0.098397196 
321080000   0.10022594 
321090000   0.11370719 
321100000   0.10497182 
321110000   0.10492067 
321120000  0.094119534 
321130000   0.10387731 
321140000  0.090858353 
321150000  0.090501014 
321160000   0.10133824 
321170000   0.10682073 
321180000  0.098914326 
321190000  0.098543242 
321200000   0.10527482 
321210000    0.1003707 
321220000   0.10398206 
321230000   0.10274975 
321240000  0.092389598 
321250000   0.10250434 
321260000  0.097057167 
321270000   0.10301293 
321280000   0.10657306 
321290000   0.10438693 
321300000   0.10280849 
321310000  0.099517679 
321320000   0.11099928 
321330000   0.10122503 
321340000   0.10110308 
321350000   0.10228105 
321360000   0.10375998 
321370000   0.11013876 
321380000  0.089954635 
321390000   0.10082807 
321400000   0.10142285 
321410000  0.099640374 
321420000   0.10227307 
321430000  0.094135667 
321440000  0.095584005 
321450000   0.10524344 
321460000  0.090509146 
321470000   0.10205832 
321480000   0.10132397 
321490000  0.097155213 
321500000  0.093577989 
321510000   0.10162395 
321520000  0.097337886 
321530000   0.10531972 
321540000    0.1032701 
321550000   0.10057076 
321560000   0.09877722 
321570000  0.094987128 
321580000   0.10046901 
321590000   0.10291565 
321600000  0.096277309 
321610000  0.095127402 
321620000   0.10532551 
321630000  0.097585432 
321640000    0.1014232 
321650000   0.10256873 
321660000  0.097174773 
321670000  0.089321832 
321680000  0.098997565 
321690000   0.10362277 
321700000  0.096360269 
321710000  0.095793168 
321720000  0.092496093 
321730000  0.099468982 
321740000   0.09284248 
321750000   0.10564868 
321760000   0.10793525 
321770000    0.1042851 
321780000   0.10016184 
321790000  0.093794205 
321800000   0.11171871 
321810000   0.10203879 
321820000   0.10613736 
321830000  0.098104053 
321840000  0.095246375 
321850000   0.10038599 
321860000  0.097416802 
321870000  0.098384278 
321880000  0.093740825 
321890000  0.099505735 
321900000   0.10735111 
321910000   0.10534104 
321920000   0.10350071 
321930000   0.10009092 
321940000  0.099544255 
321950000  0.096376631 
321960000   0.10086332 
321970000  0.091165509 
321980000   0.11110404 
321990000   0.10223193 
322000000  0.099547219 
322010000   0.09875743 
322020000  0.098261731 
322030000   0.10440918 
322040000  0.098772062 
322050000   0.10197889 
322060000   0.10433847 
322070000   0.10381781 
322080000   0.10848053 
322090000  0.097519647 
322100000  0.098306574 
322110000   0.10437066 
322120000  0.091094564 
322130000   0.10535903 
322140000  0.098438554 
322150000   0.10779772 
322160000  0.095339204 
322170000  0.098416441 
322180000   0.10033913 
322190000  0.095431005 
322200000   0.10084334 
322210000   0.10024086 
322220000  0.088353768 
322230000   0.10486555 
322240000   0.10251981 
322250000    0.1026177 
322260000   0.10619368 
322270000   0.10847686 
322280000   0.10104005 
322290000   0.10518923 
322300000   0.10990934 
322310000    0.1032674 
322320000   0.10055322 
322330000  0.098250638 
322340000  0.096139623 
322350000  0.097578252 
322360000   0.09797305 
322370000   0.10216122 
322380000   0.10385529 
322390000  0.092808497 
322400000  0.097760395 
322410000   0.10691992 
322420000  0.092852704 
322430000   0.10099842 
322440000   0.10584847 
322450000    0.1052052 
322460000   0.10206543 
322470000   0.10245971 
322480000   0.10063423 
322490000   0.10265893 
322500000  0.099319468 
322510000   0.10110164 
322520000   0.10383648 
322530000   0.11310738 
322540000  0.097569966 
322550000  0.092929981 
322560000   0.10588301 
322570000  0.095421707 
322580000  0.093716953 
322590000  0.097677085 
322600000   0.10525838 
322610000  0.098738282 
322620000   0.10138238 
322630000   0.10693953 
322640000   0.10350493 
322650000   0.10482286 
322660000   0.10861275 
322670000  0.096275704 
322680000    0.1100278 
322690000  0.098746843 
322700000  0.096076998 
322710000   0.10189794 
322720000   0.10236544 
322730000   0.10262513 
322740000  0.098099971 
322750000   0.11026949 
322760000   0.10387168 
322770000   0.10260027 
322780000  0.097280861 
322790000  0.096711728 
322800000   0.10021071 
322810000   0.10330628 
322820000  0.093816945 
322830000  0.096098231 
322840000  0.098049202 
322850000  0.097615165 
322860000   0.10393661 
322870000  0.099205281 
322880000   0.10086363 
322890000   0.10158509 
322900000  0.095226038 
322910000   0.10906796 
322920000   0.10158612 
322930000   0.10416519 
322940000  0.093948615 
322950000  0.096654152 
322960000   0.10562764 
322970000   0.10396421 
322980000   0.10004999 
322990000   0.10120646 
323000000   0.10574371 
323010000   0.10409848 
323020000   0.10578513 
323030000  0.099633488 
323040000  0.095562484 
323050000  0.093366352 
323060000    0.1038449 
323070000  0.090634534 
323080000  0.099625512 
323090000  0.098111908 
323100000  0.098501518 
323110000  0.094438585 
323120000  0.098840134 
323130000  0.099149391 
323140000   0.10750219 
323150000  0.099524192 
323160000   0.10677348 
323170000  0.095115978 
323180000  0.092241366 
323190000  0.097671319 
323200000   0.10048711 
323210000   0.10065075 
323220000    0.1045705 
323230000  0.094703226 
323240000  0.094006156 
323250000    0.1090853 
323260000   0.10721363 
323270000  0.082738592 
323280000  0.097396459 
323290000   0.10134678 
323300000    0.1052879 
323310000   0.10804749 
323320000  0.097511871 
323330000   0.10416482 
323340000   0.10046333 
323350000  0.098431099 
323360000   0.10015191 
323370000   0.10720867 
323380000  0.091390166 
323390000  0.097563734 
323400000  0.094939104 
323410000   0.10133502 
323420000  0.097860568 
323430000   0.10247551 
323440000  0.096918452 
323450000    0.1002379 
323460000  0.094608165 
323470000  0.093879303 
323480000  0.093043029 
323490000  0.099749933 
323500000   0.10352707 
323510000  0.098785138 
323520000  0.096643474 
323530000  0.098094123 
323540000   0.10017816 
323550000  0.098310018 
323560000  0.094516692 
323570000   0.10313106 
323580000  0.094033633 
323590000   0.10709604 
323600000   0.10130444 
323610000   0.10322686 
323620000  0.088638328 
323630000   0.10719523 
323640000   0.10393182 
323650000  0.095217685 
323660000  0.098435699 
323670000   0.10287144 
323680000  0.098268196 
323690000  0.092028182 
323700000   0.10394959 
323710000   0.10926251 
323720000   0.11106448 
323730000    0.1032988 
323740000   0.10068676 
323750000   0.10059895 
323760000  0.092199978 
323770000   0.11024213 
323780000  0.092405107 
323790000  0.098460603 
323800000  0.099769902 
323810000   0.09709681 
323820000   0.10138049 
323830000   0.10447989 
323840000   0.09543182 
323850000   0.10062647 
323860000  0.098375908 
323870000  0.095419089 
323880000  0.097650283 
323890000   0.10775082 
323900000   0.09703551 
323910000    0.1013186 
323920000   0.10538244 
323930000  0.098185472 
323940000   0.09503591 
323950000  0.098472956 
323960000   0.10862174 
323970000  0.095653316 
323980000   0.10590624 
323990000  0.097147239 
324000000   0.10553073 
324010000    0.1045766 
324020000  0.085511196 
324030000  0.097101256 
324040000  0.094192745 
324050000  0.093816121 
324060000  0.098847761 
324070000   0.10088491 
324080000  0.097634351 
324090000   0.10653625 
324100000  0.098313245 
324110000  0.090716948 
324120000   0.10285298 
324130000  0.095855098 
324140000  0.096272695 
324150000   0.10582805 
324160000    0.1020158 
324170000   0.10716823 
324180000   0.10397812 
324190000  0.092618529 
324200000   0.10140832 
324210000   0.11374584 
324220000   0.11121171 
324230000  0.098837002 
324240000  0.095611419 
324250000   0.11283627 
324260000    0.1079437 
324270000   0.10213377 
324280000   0.10523138 
324290000   0.10733631 
324300000  0.098053607 
324310000   0.11156245 
324320000  0.096790743 
324330000   0.10331401 
324340000    0.1048138 
324350000   0.10066059 
324360000   0.10717929 
324370000  0.093610845 
324380000   0.11154967 
324390000   0.10115928 
324400000   0.10134875 
324410000  0.093464856 
324420000  0.098748707 
324430000   0.10744422 
324440000  0.094734467 
324450000  0.098237761 
324460000  0.089812176 
324470000  0.099888814 
324480000   0.10384405 
324490000  0.099353718 
324500000  0.099549895 
324510000  0.090851706 
324520000   0.10919249 
324530000  0.098869613 
324540000   0.10312381 
324550000   0.10340733 
324560000   0.10199457 
324570000  0.098632132 
324580000   0.10917624 
324590000  0.093204873 
324600000  0.097383226 
324610000   0.10111726 
324620000  0.097923643 
324630000  0.096536671 
324640000   0.10477777 
324650000   0.10212031 
324660000  0.097685266 
324670000  0.092587099 
324680000   0.10514327 
324690000  0.089804465 
324700000   0.10660847 
324710000  0.098593342 
324720000   0.10153521 
324730000   0.10264776 
324740000   0.09734981 
324750000  0.093176706 
324760000  0.098102842 
324770000  0.091525971 
324780000  0.096785383 
324790000   0.10941418 
324800000  0.098629841 
324810000   0.10356511 
324820000    0.1085735 
324830000   0.10457587 
324840000   0.10804651 
324850000  0.094198474 
324860000   0.10820029 
324870000  0.099117933 
324880000   0.10851707 
324890000   0.10148786 
324900000   0.10175196 
324910000   0.09518327 
324920000  0.089944381 
324930000   0.10136418 
324940000  0.098808562 
324950000   0.10289811 
324960000  0.095877577 
324970000  0.091974695 
324980000   0.10449313 
324990000   0.10190529 
325000000   0.10421222 
325010000   0.10460598 
325020000   0.10212189 
325030000   0.10171821 
325040000   0.10602482 
325050000  0.093503089 
325060000   0.10259505 
325070000  0.092526236 
325080000   0.10413486 
325090000   0.10197845 
325100000   0.10120417 
325110000    0.1069445 
325120000   0.10529821 
325130000   0.10100072 
325140000   0.10128019 
325150000  0.099073247 
325160000  0.099309948 
325170000     0.101032 
325180000   0.10535597 
325190000   0.10391956 
325200000   0.11005543 
325210000  0.096788163 
325220000   0.10333535 
325230000   0.10128373 
325240000  0.098351186 
325250000   0.10698534 
325260000   0.10018055 
325270000   0.10218164 
325280000   0.10161071 
325290000   0.10569899 
325300000   0.10051431 
325310000  0.098528254 
325320000   0.10045896 
325330000   0.10752401 
325340000  0.096167235 
325350000  0.097750037 
325360000   0.10366498 
325370000   0.10547866 
325380000  0.094781523 
325390000  0.091675857 
325400000   0.10259806 
325410000   0.10586999 
325420000  0.095430078 
325430000   0.10539428 
325440000   0.10106898 
325450000  0.097626644 
325460000   0.10279951 
325470000  0.097563498 
325480000   0.10140723 
325490000   0.10038716 
325500000   0.09429268 
325510000   0.10194039 
325520000   0.10571599 
325530000   0.10017646 
325540000  0.095563764 
325550000   0.10655601 
325560000  0.093353078 
325570000  0.095255837 
325580000  0.094204097 
325590000  0.098746635 
325600000   0.10129208 
325610000   0.11011437 
325620000   0.10121006 
325630000  0.099183967 
325640000   0.10278476 
325650000  0.095982913 
325660000  0.092314815 
325670000   0.11122336 
325680000    0.1065549 
325690000   0.11076047 
325700000  0.096713132 
325710000   0.10465053 
325720000  0.099860221 
325730000   0.10253558 
325740000   0.10293941 
325750000  0.095079727 
325760000   0.10909564 
325770000   0.11325595 
325780000   0.10510215 
325790000  0.093103139 
325800000   0.10166184 
325810000   0.10453714 
325820000   0.10140228 
325830000    0.1015139 
325840000   0.10592437 
325850000   0.10211442 
325860000  0.099777637 
325870000  0.086363442 
325880000  0.096770928 
325890000   0.10290161 
325900000  0.098599143 
325910000  0.099852956 
325920000    0.1017124 
325930000   0.10243643 
325940000   0.10439392 
325950000   0.10642919 
325960000  0.097629515 
325970000   0.10459014 
325980000   0.11023104 
325990000  0.087357457 
326000000  0.093828482 
326010000   0.10569739 
326020000   0.10240833 
326030000  0.099727868 
326040000  0.096214993 
326050000   0.10052239 
326060000   0.10108769 
326070000   0.10482784 
326080000  0.096581132 
326090000  0.095226749 
326100000  0.096657125 
326110000   0.10953255 
326120000   0.10172924 
326130000  0.093801997 
326140000   0.10083881 
326150000  0.099678638 
326160000   0.10815504 
326170000   0.10162452 
326180000   0.09406371 
326190000   0.10118903 
326200000   0.10451846 
326210000   0.10398372 
326220000   0.10106445 
326230000  0.090851006 
326240000  0.095356447 
326250000  0.096938516 
326260000   0.10233343 
326270000  0.088466226 
326280000  0.096554029 
326290000   0.10626287 
326300000    0.1081023 
326310000  0.098279574 
326320000  0.094767683 
326330000   0.10217214 
326340000  0.098940974 
326350000  0.091167953 
326360000  0.097874934 
326370000  0.097191641 
326380000   0.11042438 
326390000   0.10182124 
326400000  0.099220313 
326410000    0.1129282 
326420000    0.1014718 
326430000   0.10848322 
326440000   0.10396968 
326450000   0.10789204 
326460000   0.10893996 
326470000   0.10980195 
326480000   0.11047041 
326490000  0.098558907 
326500000  0.098205903 
326510000   0.10715705 
326520000   0.10256481 
326530000   0.10001979 
326540000  0.097361156 
326550000   0.10009091 
326560000   0.10207897 
326570000   0.10667572 
326580000  0.099670774 
326590000  0.089293667 
326600000   0.09843766 
326610000  0.095950588 
326620000  0.098772938 
326630000  0.088930544 
326640000  0.088761686 
326650000  0.091984046 
326660000  0.098637698 
326670000  0.098416079 
326680000   0.10770309 
326690000   0.10675674 
326700000   0.10284402 
326710000   0.10548832 
326720000     0.103209 
326730000   0.10079253 
326740000  0.098224211 
326750000  0.098325754 
326760000  0.098605728 
326770000   0.10923982 
326780000   0.10300533 
326790000   0.10677865 
326800000   0.10835602 
326810000   0.09119838 
326820000  0.091518873 
326830000  0.098754769 
326840000   0.10663305 
326850000   0.10615119 
326860000  0.090519811 
326870000   0.11379571 
326880000  0.098149505 
326890000  0.096004312 
326900000   0.10862548 
326910000  0.096141976 
326920000   0.11332518 
326930000   0.11205848 
326940000   0.10119906 
326950000  0.096504694 
326960000   0.09853608 
326970000   0.11200267 
326980000  0.099746158 
326990000    0.1088004 
327000000   0.10045435 
327010000  0.099148921 
327020000  0.096288238 
327030000  0.092491593 
327040000   0.10072484 
327050000   0.10223194 
327060000   0.10005893 
327070000  0.090354973 
327080000  0.090646639 
327090000    0.1017153 
327100000   0.10000058 
327110000   0.10707633 
327120000   0.10175396 
327130000   0.08666236 
327140000    0.1037613 
327150000  0.090890461 
327160000  0.093052796 
327170000  0.097681791 
327180000   0.10185817 
327190000  0.095863085 
327200000   0.10533635 
327210000  0.098951538 
327220000  0.098408786 
327230000   0.10410288 
327240000   0.10295545 
327250000  0.097974788 
327260000   0.10174718 
327270000   0.10187177 
327280000   0.10670809 
327290000  0.092422832 
327300000  0.098842342 
327310000  0.088513516 
327320000  0.096557395 
327330000  0.098051981 
327340