# LAMMPS data file
241 atoms
241 ellipsoids
236 bonds

4 atom types
1 bond types

# System size
0.000000 40.000000 xlo xhi
0.000000 40.000000 ylo yhi
0.000000 40.000000 zlo zhi

Masses

1 3.1575
2 3.1575
3 3.1575
4 3.1575

# Atom-ID, type, position, molecule-ID, ellipsoid flag, density
Atoms

1 3 -3.404466152191162e+00  4.772842407226562e+00  1.073622894287109e+01 1 1 1
2 2 -2.929899930953979e+00  4.521522521972656e+00  1.071923446655273e+01 1 1 1
3 4 -2.602134227752686e+00  4.098485946655273e+00  1.067183494567871e+01 1 1 1
4 1 -2.457722902297974e+00  3.607862949371338e+00  1.050712966918945e+01 1 1 1
5 3 -2.463696479797363e+00  3.179479598999023e+00  1.018279457092285e+01 1 1 1
6 2 -2.529846429824829e+00  2.919610023498535e+00  9.717210769653320e+00 1 1 1
7 1 -2.543141603469849e+00  2.870347738265991e+00  9.182374954223633e+00 1 1 1
8 2 -2.410623073577881e+00  2.993878364562988e+00  8.676488876342773e+00 1 1 1
9 2 -2.094784975051880e+00  3.186743736267090e+00  8.287031173706055e+00 1 1 1
10 4 -1.627630352973938e+00  3.319046020507812e+00  8.057017326354980e+00 1 1 1
11 1 -1.098713278770447e+00  3.283993482589722e+00  7.968802452087402e+00 1 1 1
12 2 -6.212157011032104e-01  3.038379669189453e+00  7.951287746429443e+00 1 1 1
13 2 -2.884735465049744e-01  2.618906259536743e+00  7.906021118164062e+00 1 1 1
14 2 -1.391343176364899e-01  2.128408670425415e+00  7.745396137237549e+00 1 1 1
15 3 -1.419269740581512e-01  1.696674704551697e+00  7.425646305084229e+00 1 1 1
16 4 -2.079574763774872e-01  1.431175947189331e+00  6.963176250457764e+00 1 1 1
17 1 -2.241746187210083e-01  1.376189708709717e+00  6.428978919982910e+00 1 1 1
18 2 -9.652408212423325e-02  1.496055841445923e+00  5.921015739440918e+00 1 1 1
19 3  2.143147289752960e-01  1.688724517822266e+00  5.527418613433838e+00 1 1 1
20 1  6.782900094985962e-01  1.824395537376404e+00  5.292813777923584e+00 1 1 1
21 3  1.206965088844299e+00  1.794977068901062e+00  5.201487064361572e+00 1 1 1
22 1  1.687384486198425e+00  1.555085420608521e+00  5.183208942413330e+00 1 1 1
23 1  2.024937391281128e+00  1.139321327209473e+00  5.140089511871338e+00 1 1 1
24 3  2.179339408874512e+00  6.490438580513000e-01  4.983594894409180e+00 1 1 1
25 3  2.179722785949707e+00  2.140053659677505e-01  4.668248653411865e+00 1 1 1
26 3  2.114004850387573e+00 -5.710531026124954e-02  4.209000587463379e+00 1 1 1
27 2  2.094924449920654e+00 -1.178189218044281e-01  3.675500154495239e+00 1 1 1
28 1  2.402596712112427e+00 -1.256718277931213e+00  2.915624618530273e+00 1 1 1
29 1  2.509385585784912e+00 -1.707154154777527e+00  2.642881155014038e+00 1 1 1
30 1  2.771974563598633e+00 -2.960888147354126e+00  1.948019981384277e+00 1 1 1
31 1  2.413564682006836e+00 -3.334346532821655e+00  1.803884506225586e+00 1 1 1
32 1  2.248442888259888e+00 -3.789174556732178e+00  1.570304512977600e+00 1 1 1
33 4  2.302469253540039e+00 -4.288921833038330e+00  1.380518674850464e+00 1 1 1
34 1  2.518305063247681e+00 -4.780109882354736e+00  1.351123213768005e+00 1 1 1
35 3  2.776986598968506e+00 -5.212452888488770e+00  1.537698984146118e+00 1 1 1
36 4  2.943597793579102e+00 -5.558055877685547e+00  1.913874149322510e+00 1 1 1
37 3  2.917870044708252e+00 -5.822001457214355e+00  2.381151914596558e+00 1 1 1
38 3  2.672688484191895e+00 -6.040317058563232e+00  2.806552171707153e+00 1 1 1
39 3  2.264467000961304e+00 -6.266469001770020e+00  3.072796583175659e+00 1 1 1
40 2  1.811438918113708e+00 -6.550858497619629e+00  3.123331785202026e+00 1 1 1
41 3  1.448846578598022e+00 -6.921780109405518e+00  2.983353853225708e+00 1 1 1
42 3  1.277581810951233e+00 -7.374706268310547e+00  2.750481843948364e+00 1 1 1
43 4  1.325896739959717e+00 -7.873902320861816e+00  2.557760238647461e+00 1 1 1
44 1  1.538588285446167e+00 -8.366086006164551e+00  2.522707223892212e+00 1 1 1
45 4  1.797999620437622e+00 -8.800562858581543e+00  2.703291177749634e+00 1 1 1
46 2  1.968736529350281e+00 -9.148672103881836e+00  3.075246810913086e+00 1 1 1
47 1  1.949146509170532e+00 -9.414568901062012e+00  3.541690111160278e+00 1 1 1
48 4  1.709731221199036e+00 -9.633418083190918e+00  3.970030069351196e+00 1 1 1
49 2  1.304598569869995e+00 -9.858618736267090e+00  4.241873264312744e+00 1 1 1
50 3  1.302635955810547e+01  7.256712436676025e+00  1.343549370765686e+00 2 1 1
51 2  1.286512184143066e+01  6.750557422637939e+00  1.423909187316895e+00 2 1 1
52 4  1.262666225433350e+01  6.349907398223877e+00  1.690952062606812e+00 2 1 1
53 1  1.227431869506836e+01  6.131929874420166e+00  2.033124923706055e+00 2 1 1
54 3  1.181488037109375e+01  6.104308128356934e+00  2.310227870941162e+00 2 1 1
55 2  1.129553413391113e+01  6.202480316162109e+00  2.406853437423706e+00 2 1 1
56 1  1.078648090362549e+01  6.314008712768555e+00  2.276187419891357e+00 2 1 1
57 3  1.035377407073975e+01  6.321398258209229e+00  1.957685947418213e+00 2 1 1
58 2  1.003476810455322e+01  6.146773338317871e+00  1.562218070030212e+00 2 1 1
59 1  9.823317527770996e+00  5.781385898590088e+00  1.229834914207458e+00 2 1 1
60 4  9.672565460205078e+00  5.288936614990234e+00  1.076764106750488e+00 2 1 1
61 1  9.512548446655273e+00  4.781388282775879e+00  1.150953888893127e+00 2 1 1
62 3  9.276943206787109e+00  4.376476287841797e+00  1.414023518562317e+00 2 1 1
63 4  8.927955627441406e+00  4.152987003326416e+00  1.755930662155151e+00 2 1 1
64 3  8.470903396606445e+00  4.120670318603516e+00  2.036687374114990e+00 2 1 1
65 3  7.952353954315186e+00  4.216693401336670e+00  2.139416217803955e+00 2 1 1
66 4  7.442010879516602e+00  4.329491138458252e+00  2.014935255050659e+00 2 1 1
67 2  7.006582736968994e+00  4.341118812561035e+00  1.700389146804810e+00 2 1 1
68 2  6.684221267700195e+00  4.172079563140869e+00  1.305182576179504e+00 2 1 1
69 3  6.470273494720459e+00  3.811404705047607e+00  9.692870378494263e-01 2 1 1
70 4  6.318735599517822e+00  3.321111679077148e+00  8.101146817207336e-01 2 1 1
71 2  6.159982204437256e+00  2.812336921691895e+00  8.780496716499329e-01 2 1 1
72 1  5.927107810974121e+00  2.403249502182007e+00  1.137164354324341e+00 2 1 1
73 1  5.581408023834229e+00  2.174193859100342e+00  1.478818178176880e+00 2 1 1
74 2  5.126958370208740e+00  2.137099981307983e+00  1.763010382652283e+00 2 1 1
75 4  4.609254360198975e+00  2.230904579162598e+00  1.871713399887085e+00 2 1 1
76 1  3.708521842956543e+00  1.649386048316956e+00  2.591087341308594e+00 2 1 1
77 1  3.330757141113281e+00  1.454819202423096e+00  2.919911861419678e+00 2 1 1
78 2  2.359794139862061e+00  1.050372838973999e+00  3.817828178405762e+00 2 1 1
79 2  1.831249594688416e+00  1.077020883560181e+00  3.910795450210571e+00 2 1 1
80 2  1.368927836418152e+00  9.397256374359131e-01  4.147599697113037e+00 2 1 1
81 4  1.060561895370483e+00  7.471995949745178e-01  4.543266296386719e+00 2 1 1
82 4  9.353408217430115e-01  6.291502118110657e-01  5.052244663238525e+00 2 1 1
83 2  9.529921412467957e-01  6.870062947273254e-01  5.586119651794434e+00 2 1 1
84 4  1.018897652626038e+00  9.553297758102417e-01  6.046947479248047e+00 2 1 1
85 2  1.020103573799133e+00  1.388746500015259e+00  6.364500522613525e+00 2 1 1
86 3  8.682338595390320e-01  1.879127383232117e+00  6.523048400878906e+00 2 1 1
87 4  5.331153869628906e-01  2.296730995178223e+00  6.567245483398438e+00 2 1 1
88 1  5.412621796131134e-02  2.539492607116699e+00  6.585138320922852e+00 2 1 1
89 2 -4.746754467487335e-01  2.571718692779541e+00  6.674825668334961e+00 2 1 1
90 3 -9.402332901954651e-01  2.437733411788940e+00  6.907229423522949e+00 2 1 1
91 3 -1.253602743148804e+00  2.244977235794067e+00  7.298756599426270e+00 2 1 1
92 3 -1.383691430091858e+00  2.123255014419556e+00  7.805653095245361e+00 2 1 1
93 4 -1.368903756141663e+00  2.175354719161987e+00  8.340217590332031e+00 2 1 1
94 1 -1.302753686904907e+00  2.438047885894775e+00  8.804215431213379e+00 2 1 1
95 3 -1.298369288444519e+00  2.868103981018066e+00  9.126288414001465e+00 2 1 1
96 3 -1.445245504379272e+00  3.358689308166504e+00  9.288919448852539e+00 2 1 1
97 3 -5.358574390411377e+00  4.184026241302490e+00 -6.716082572937012e+00 3 1 1
98 2 -4.824800968170166e+00  4.237051486968994e+00 -6.747076511383057e+00 3 1 1
99 4 -4.341530799865723e+00  4.415750503540039e+00 -6.594734668731689e+00 3 1 1
100 1 -3.974656820297241e+00  4.596652507781982e+00 -6.246396541595459e+00 3 1 1
101 3 -3.745731592178345e+00  4.655436992645264e+00 -5.763848304748535e+00 3 1 1
102 2 -3.624080419540405e+00  4.514229774475098e+00 -5.259862422943115e+00 3 1 1
103 1 -3.538185834884644e+00  4.171072483062744e+00 -4.855443954467773e+00 3 1 1
104 3 -3.402830839157104e+00  3.700787067413330e+00 -4.633691787719727e+00 3 1 1
105 2 -3.151790142059326e+00  3.226417541503906e+00 -4.608278274536133e+00 3 1 1
106 2 -2.762684106826782e+00  2.872633695602417e+00 -4.718354225158691e+00 3 1 1
107 1 -2.265564918518066e+00  2.718276500701904e+00 -4.851541042327881e+00 3 1 1
108 4 -1.731611728668213e+00  2.766392469406128e+00 -4.886752605438232e+00 3 1 1
109 1 -1.245894670486450e+00  2.943106412887573e+00 -4.739991188049316e+00 3 1 1
110 1 -8.752237558364868e-01  3.125724792480469e+00 -4.396574974060059e+00 3 1 1
111 2 -6.426753401756287e-01  3.189302444458008e+00 -3.916423320770264e+00 3 1 1
112 2 -5.188722014427185e-01  3.054099798202515e+00 -3.411422252655029e+00 3 1 1
113 4 -4.330970346927643e-01  2.715867996215820e+00 -3.002846717834473e+00 3 1 1
114 3 -3.001729547977448e-01  2.247551441192627e+00 -2.775392770767212e+00 3 1 1
115 3 -5.291819572448730e-02  1.771509766578674e+00 -2.745014667510986e+00 3 1 1
116 3  3.325015008449554e-01  1.412999987602234e+00 -2.852675914764404e+00 3 1 1
117 1  8.274583816528320e-01  1.252652168273926e+00 -2.986943721771240e+00 3 1 1
118 3  1.361538290977478e+00  1.295796394348145e+00 -3.026245355606079e+00 3 1 1
119 2  1.849691510200500e+00  1.470473408699036e+00 -2.885169506072998e+00 3 1 1
120 3  2.224077939987183e+00  1.654760837554932e+00 -2.546781063079834e+00 3 1 1
121 4  2.460315465927124e+00  1.723024964332581e+00 -2.069042444229126e+00 3 1 1
122 1  2.586347103118896e+00  1.593763589859009e+00 -1.562960147857666e+00 3 1 1
123 1  3.480547189712524e+00  1.799791693687439e+00 -5.967058539390564e-01 3 1 1
124 1  3.834033250808716e+00  1.924338459968567e+00 -2.117098718881607e-01 3 1 1
125 1  4.641784191131592e+00  2.337194204330444e+00  6.769217252731323e-01 3 1 1
126 3  4.793712139129639e+00  2.826396465301514e+00  8.390561938285828e-01 3 1 1
127 4  5.008957386016846e+00  3.184659481048584e+00  1.176671981811523e+00 3 1 1
128 4  5.332944393157959e+00  3.350950717926025e+00  1.571689605712891e+00 3 1 1
129 3  5.769827842712402e+00  3.337216854095459e+00  1.884214520454407e+00 3 1 1
130 1  6.280775547027588e+00  3.223803758621216e+00  2.005569696426392e+00 3 1 1
131 2  6.798939704895020e+00  3.128865480422974e+00  1.899880886077881e+00 3 1 1
132 3  7.254692077636719e+00  3.163538217544556e+00  1.617407679557800e+00 3 1 1
133 3  7.602031707763672e+00  3.389864206314087e+00  1.275624155998230e+00 3 1 1
134 1  7.836298942565918e+00  3.796828985214233e+00  1.014498114585876e+00 3 1 1
135 2  7.995587825775146e+00  4.305033206939697e+00  9.434500932693481e-01 3 1 1
136 2  8.146734237670898e+00  4.796411037445068e+00  1.099540829658508e+00 3 1 1
137 1  8.359498023986816e+00  5.159459114074707e+00  1.433698654174805e+00 3 1 1
138 2  8.680152893066406e+00  5.331314563751221e+00  1.829038262367249e+00 3 1 1
139 4  9.114251136779785e+00  5.321767330169678e+00  2.145591497421265e+00 3 1 1
140 1  9.623981475830078e+00  5.209571361541748e+00  2.273129701614380e+00 3 1 1
141 4  1.014293384552002e+01  5.112471580505371e+00  2.173484325408936e+00 3 1 1
142 3  1.060118293762207e+01  5.142437458038330e+00  1.894520759582520e+00 3 1 1
143 2  1.095180034637451e+01  5.363159179687500e+00  1.552490353584290e+00 3 1 1
144 3  1.104431247711182e+01 -6.212503910064697e+00 -9.243201255798340e+00 4 1 1
145 2  1.108280181884766e+01 -6.002867221832275e+00 -8.749957084655762e+00 4 1 1
146 4  1.107560729980469e+01 -5.609643936157227e+00 -8.383945465087891e+00 4 1 1
147 1  1.093150329589844e+01 -5.133736610412598e+00 -8.180324554443359e+00 4 1 1
148 3  1.061144256591797e+01 -4.707502365112305e+00 -8.112811088562012e+00 4 1 1
149 2  1.014310932159424e+01 -4.444370269775391e+00 -8.103296279907227e+00 4 1 1
150 1  9.610511779785156e+00 -4.395854949951172e+00 -8.051615715026855e+00 4 1 1
151 2  9.122128486633301e+00 -4.531912803649902e+00 -7.873737335205078e+00 4 1 1
152 1  8.769597053527832e+00 -4.752410888671875e+00 -7.533445835113525e+00 4 1 1
153 3  8.593013763427734e+00 -4.925033569335938e+00 -7.056263923645020e+00 4 1 1
154 4  8.565495491027832e+00 -4.935797691345215e+00 -6.519804000854492e+00 4 1 1
155 2  8.603691101074219e+00 -4.732118606567383e+00 -6.024049758911133e+00 4 1 1
156 1  8.599180221557617e+00 -4.342888355255127e+00 -5.653675079345703e+00 4 1 1
157 1  8.459701538085938e+00 -3.867557287216187e+00 -5.445638656616211e+00 4 1 1
158 2  8.144454002380371e+00 -3.438170433044434e+00 -5.375174045562744e+00 4 1 1
159 4  7.679296970367432e+00 -3.169450759887695e+00 -5.365388393402100e+00 4 1 1
160 2  7.147049427032471e+00 -3.114988088607788e+00 -5.316211223602295e+00 4 1 1
161 1  6.655991077423096e+00 -3.247033357620239e+00 -5.142623424530029e+00 4 1 1
162 3  6.298885822296143e+00 -3.466882944107056e+00 -4.806752681732178e+00 4 1 1
163 3  6.117412090301514e+00 -3.642618656158447e+00 -4.332576751708984e+00 4 1 1
164 4  6.086723327636719e+00 -3.658955812454224e+00 -3.796396493911743e+00 4 1 1
165 2  6.124498367309570e+00 -3.461220979690552e+00 -3.298210382461548e+00 4 1 1
166 3  6.122597694396973e+00 -3.076082229614258e+00 -2.923588752746582e+00 4 1 1
167 4  5.987755298614502e+00 -2.601376295089722e+00 -2.711084127426147e+00 4 1 1
168 1  5.677360534667969e+00 -2.168997526168823e+00 -2.637673377990723e+00 4 1 1
169 2  5.215498447418213e+00 -1.894702553749084e+00 -2.627477169036865e+00 4 1 1
170 2  4.683663368225098e+00 -1.834274053573608e+00 -2.580739974975586e+00 4 1 1
171 1  3.923252344131470e+00 -8.541362285614014e-01 -2.331235647201538e+00 4 1 1
172 1  3.606953859329224e+00 -4.287094771862030e-01 -2.243741750717163e+00 4 1 1
173 3  2.908117532730103e+00  5.605412125587463e-01 -2.095931291580200e+00 4 1 1
174 4  2.373943805694580e+00  5.198892951011658e-01 -2.054586410522461e+00 4 1 1
175 1  1.880156993865967e+00  6.832279562950134e-01 -1.919817447662354e+00 4 1 1
176 2  1.496576666831970e+00  1.044088840484619e+00 -1.813391327857971e+00 4 1 1
177 3  1.251147150993347e+00  1.520932912826538e+00 -1.846306920051575e+00 4 1 1
178 2  1.119482278823853e+00  1.988206863403320e+00 -2.076550483703613e+00 4 1 1
179 4  1.033741474151611e+00  2.323952913284302e+00 -2.487159013748169e+00 4 1 1
180 2  9.088181853294373e-01  2.456198930740356e+00 -2.992734432220459e+00 4 1 1
181 2  6.744819879531860e-01  2.390247344970703e+00 -3.471716165542603e+00 4 1 1
182 2  3.019165098667145e-01  2.206808328628540e+00 -3.812651157379150e+00 4 1 1
183 1 -1.850370168685913e-01  2.031080722808838e+00 -3.956498384475708e+00 4 1 1
184 3 -7.190792560577393e-01  1.985446214675903e+00 -3.919236660003662e+00 4 1 1
185 3 -1.215082883834839e+00  2.142802953720093e+00 -3.785480499267578e+00 4 1 1
186 4 -1.602411150932312e+00  2.498972892761230e+00 -3.676638126373291e+00 4 1 1
187 4 -1.851561903953552e+00  2.974194288253784e+00 -3.704532146453857e+00 4 1 1
188 1 -1.985673189163208e+00  3.443507194519043e+00 -3.929141283035278e+00 4 1 1
189 4 -2.071475267410278e+00  3.784178972244263e+00 -4.335617065429688e+00 4 1 1
190 3 -2.194170951843262e+00  3.922383785247803e+00 -4.840108394622803e+00 4 1 1
191 3 -2.424941062927246e+00  3.861191511154175e+00 -5.321489810943604e+00 4 1 1
192 2 -2.793716669082642e+00  3.679417848587036e+00 -5.667392253875732e+00 4 1 1
193 3  1.936560729518533e-03 -1.230305576324463e+01  4.752399444580078e+00 5 1 1
194 2  3.707504570484161e-01 -1.193591308593750e+01  4.885932922363281e+00 5 1 1
195 4  8.246622085571289e-01 -1.165471172332764e+01  4.826315879821777e+00 5 1 1
196 1  1.228159785270691e+00 -1.142999744415283e+01  4.551762580871582e+00 5 1 1
197 3  1.464726686477661e+00 -1.121079158782959e+01  4.121960163116455e+00 5 1 1
198 2  1.481279015541077e+00 -1.094395637512207e+01  3.655966758728027e+00 5 1 1
199 1  1.308504700660706e+00 -1.059461021423340e+01  3.286119937896729e+00 5 1 1
200 3  1.048762559890747e+00 -1.015904235839844e+01  3.108618259429932e+00 5 1 1
201 1  8.376443982124329e-01 -9.666388511657715e+00  3.146381139755249e+00 5 1 1
202 4  7.921786308288574e-01 -9.167498588562012e+00  3.340630769729614e+00 5 1 1
203 3  9.664824008941650e-01 -8.715535163879395e+00  3.572993278503418e+00 5 1 1
204 1  1.331171631813049e+00 -8.345864295959473e+00  3.710865974426270e+00 5 1 1
205 4  1.784533739089966e+00 -8.062518119812012e+00  3.657369136810303e+00 5 1 1
206 1  2.191181898117065e+00 -7.836871147155762e+00  3.388291835784912e+00 5 1 1
207 2  2.433451414108276e+00 -7.618247509002686e+00  2.961483716964722e+00 5 1 1
208 2  2.456196308135986e+00 -7.353398323059082e+00  2.494529962539673e+00 5 1 1
209 3  2.287492752075195e+00 -7.006514072418213e+00  2.120465278625488e+00 5 1 1
210 2  2.028478145599365e+00 -6.573097705841064e+00  1.936914205551147e+00 5 1 1
211 2  1.814149498939514e+00 -6.081418514251709e+00  1.969077467918396e+00 5 1 1
212 2  1.762980341911316e+00 -5.581952571868896e+00  2.160392999649048e+00 5 1 1
213 1  1.931145310401917e+00 -5.128042221069336e+00  2.393648147583008e+00 5 1 1
214 2  2.291703701019287e+00 -4.755873680114746e+00  2.535674810409546e+00 5 1 1
215 4  2.744342803955078e+00 -4.470376968383789e+00  2.488228559494019e+00 5 1 1
216 1  3.154134035110474e+00 -4.243775844573975e+00  2.224693298339844e+00 5 1 1
217 4  3.402110099792480e+00 -4.025706768035889e+00  1.800818204879761e+00 5 1 1
218 4  3.430939435958862e+00 -3.762720346450806e+00  1.333214521408081e+00 5 1 1
219 4  3.266484737396240e+00 -3.418351411819458e+00  9.549959897994995e-01 5 1 1
220 1  3.960676193237305e+00 -3.080367326736450e+00 -2.718716859817505e-01 5 1 1
221 1  4.219017028808594e+00 -2.984242200851440e+00 -7.330741286277771e-01 5 1 1
222 3  4.884893894195557e+00 -2.825721263885498e+00 -1.935352206230164e+00 5 1 1
223 3  4.847329139709473e+00 -3.020463466644287e+00 -2.434697389602661e+00 5 1 1
224 4  4.879675388336182e+00 -3.001349449157715e+00 -2.970645904541016e+00 5 1 1
225 1  5.063598155975342e+00 -2.824134349822998e+00 -3.443433761596680e+00 5 1 1
226 2  5.423019409179688e+00 -2.604601621627808e+00 -3.777010202407837e+00 5 1 1
227 3  5.915324687957764e+00 -2.474617004394531e+00 -3.948474168777466e+00 5 1 1
228 1  6.447427749633789e+00 -2.532067060470581e+00 -3.996491670608521e+00 5 1 1
229 2  6.910933494567871e+00 -2.803563594818115e+00 -4.006393432617188e+00 5 1 1
230 2  7.223724842071533e+00 -3.234463691711426e+00 -4.078363895416260e+00 5 1 1
231 4  7.360889911651611e+00 -3.709486484527588e+00 -4.288572788238525e+00 5 1 1
232 3  7.364092350006104e+00 -4.096673011779785e+00 -4.661130905151367e+00 5 1 1
233 1  7.326109886169434e+00 -4.297375679016113e+00 -5.158036708831787e+00 5 1 1
234 3  7.355215549468994e+00 -4.283830642700195e+00 -5.694389343261719e+00 5 1 1
235 4  7.534245014190674e+00 -4.109652042388916e+00 -6.170131683349609e+00 5 1 1
236 4  7.889025211334229e+00 -3.889466047286987e+00 -6.508181571960449e+00 5 1 1
237 3  8.378766059875488e+00 -3.755405664443970e+00 -6.683944702148438e+00 5 1 1
238 1  8.911235809326172e+00 -3.806893587112427e+00 -6.734342575073242e+00 5 1 1
239 2  9.377985954284668e+00 -4.072820186614990e+00 -6.744029045104980e+00 5 1 1
240 4  9.695666313171387e+00 -4.500628471374512e+00 -6.812983512878418e+00 5 1 1
241 3  9.837396621704102e+00 -4.976266860961914e+00 -7.018781185150146e+00 5 1 1

# Atom-ID, translational, rotational velocity
Velocities

1  0.000000000000000e+00  0.000000000000000e+00  0.000000000000000e+00  0.000000000000000e+00  0.000000000000000e+00  0.000000000000000e+00
2  0.000000000000000e+00  0.000000000000000e+00  0.000000000000000e+00  0.000000000000000e+00  0.000000000000000e+00  0.000000000000000e+00
3  0.000000000000000e+00  0.000000000000000e+00  0.000000000000000e+00  0.000000000000000e+00  0.000000000000000e+00  0.000000000000000e+00
4  0.000000000000000e+00  0.000000000000000e+00  0.000000000000000e+00  0.000000000000000e+00  0.000000000000000e+00  0.000000000000000e+00
5  0.000000000000000e+00  0.000000000000000e+00  0.000000000000000e+00  0.000000000000000e+00  0.000000000000000e+00  0.000000000000000e+00
6  0.000000000000000e+00  0.000000000000000e+00  0.000000000000000e+00  0.000000000000000e+00  0.000000000000000e+00  0.000000000000000e+00
7  0.000000000000000e+00  0.000000000000000e+00  0.000000000000000e+00  0.000000000000000e+00  0.000000000000000e+00  0.000000000000000e+00
8  0.000000000000000e+00  0.000000000000000e+00  0.000000000000000e+00  0.000000000000000e+00  0.000000000000000e+00  0.000000000000000e+00
9  0.000000000000000e+00  0.000000000000000e+00  0.000000000000000e+00  0.000000000000000e+00  0.000000000000000e+00  0.000000000000000e+00
10  0.000000000000000e+00  0.000000000000000e+00  0.000000000000000e+00  0.000000000000000e+00  0.000000000000000e+00  0.000000000000000e+00
11  0.000000000000000e+00  0.000000000000000e+00  0.000000000000000e+00  0.000000000000000e+00  0.000000000000000e+00  0.000000000000000e+00
12  0.000000000000000e+00  0.000000000000000e+00  0.000000000000000e+00  0.000000000000000e+00  0.000000000000000e+00  0.000000000000000e+00
13  0.000000000000000e+00  0.000000000000000e+00  0.000000000000000e+00  0.000000000000000e+00  0.000000000000000e+00  0.000000000000000e+00
14  0.000000000000000e+00  0.000000000000000e+00  0.000000000000000e+00  0.000000000000000e+00  0.000000000000000e+00  0.000000000000000e+00
15  0.000000000000000e+00  0.000000000000000e+00  0.000000000000000e+00  0.000000000000000e+00  0.000000000000000e+00  0.000000000000000e+00
16  0.000000000000000e+00  0.000000000000000e+00  0.000000000000000e+00  0.000000000000000e+00  0.000000000000000e+00  0.000000000000000e+00
17  0.000000000000000e+00  0.000000000000000e+00  0.000000000000000e+00  0.000000000000000e+00  0.000000000000000e+00  0.000000000000000e+00
18  0.000000000000000e+00  0.000000000000000e+00  0.000000000000000e+00  0.000000000000000e+00  0.000000000000000e+00  0.000000000000000e+00
19  0.000000000000000e+00  0.000000000000000e+00  0.000000000000000e+00  0.000000000000000e+00  0.000000000000000e+00  0.000000000000000e+00
20  0.000000000000000e+00  0.000000000000000e+00  0.000000000000000e+00  0.000000000000000e+00  0.000000000000000e+00  0.000000000000000e+00
21  0.000000000000000e+00  0.000000000000000e+00  0.000000000000000e+00  0.000000000000000e+00  0.000000000000000e+00  0.000000000000000e+00
22  0.000000000000000e+00  0.000000000000000e+00  0.000000000000000e+00  0.000000000000000e+00  0.000000000000000e+00  0.000000000000000e+00
23  0.000000000000000e+00  0.000000000000000e+00  0.000000000000000e+00  0.000000000000000e+00  0.000000000000000e+00  0.000000000000000e+00
24  0.000000000000000e+00  0.000000000000000e+00  0.000000000000000e+00  0.000000000000000e+00  0.000000000000000e+00  0.000000000000000e+00
25  0.000000000000000e+00  0.000000000000000e+00  0.000000000000000e+00  0.000000000000000e+00  0.000000000000000e+00  0.000000000000000e+00
26  0.000000000000000e+00  0.000000000000000e+00  0.000000000000000e+00  0.000000000000000e+00  0.000000000000000e+00  0.000000000000000e+00
27  0.000000000000000e+00  0.000000000000000e+00  0.000000000000000e+00  0.000000000000000e+00  0.000000000000000e+00  0.000000000000000e+00
28  0.000000000000000e+00  0.000000000000000e+00  0.000000000000000e+00  0.000000000000000e+00  0.000000000000000e+00  0.000000000000000e+00
29  0.000000000000000e+00  0.000000000000000e+00  0.000000000000000e+00  0.000000000000000e+00  0.000000000000000e+00  0.000000000000000e+00
30  0.000000000000000e+00  0.000000000000000e+00  0.000000000000000e+00  0.000000000000000e+00  0.000000000000000e+00  0.000000000000000e+00
31  0.000000000000000e+00  0.000000000000000e+00  0.000000000000000e+00  0.000000000000000e+00  0.000000000000000e+00  0.000000000000000e+00
32  0.000000000000000e+00  0.000000000000000e+00  0.000000000000000e+00  0.000000000000000e+00  0.000000000000000e+00  0.000000000000000e+00
33  0.000000000000000e+00  0.000000000000000e+00  0.000000000000000e+00  0.000000000000000e+00  0.000000000000000e+00  0.000000000000000e+00
34  0.000000000000000e+00  0.000000000000000e+00  0.000000000000000e+00  0.000000000000000e+00  0.000000000000000e+00  0.000000000000000e+00
35  0.000000000000000e+00  0.000000000000000e+00  0.000000000000000e+00  0.000000000000000e+00  0.000000000000000e+00  0.000000000000000e+00
36  0.000000000000000e+00  0.000000000000000e+00  0.000000000000000e+00  0.000000000000000e+00  0.000000000000000e+00  0.000000000000000e+00
37  0.000000000000000e+00  0.000000000000000e+00  0.000000000000000e+00  0.000000000000000e+00  0.000000000000000e+00  0.000000000000000e+00
38  0.000000000000000e+00  0.000000000000000e+00  0.000000000000000e+00  0.000000000000000e+00  0.000000000000000e+00  0.000000000000000e+00
39  0.000000000000000e+00  0.000000000000000e+00  0.000000000000000e+00  0.000000000000000e+00  0.000000000000000e+00  0.000000000000000e+00
40  0.000000000000000e+00  0.000000000000000e+00  0.000000000000000e+00  0.000000000000000e+00  0.000000000000000e+00  0.000000000000000e+00
41  0.000000000000000e+00  0.000000000000000e+00  0.000000000000000e+00  0.000000000000000e+00  0.000000000000000e+00  0.000000000000000e+00
42  0.000000000000000e+00  0.000000000000000e+00  0.000000000000000e+00  0.000000000000000e+00  0.000000000000000e+00  0.000000000000000e+00
43  0.000000000000000e+00  0.000000000000000e+00  0.000000000000000e+00  0.000000000000000e+00  0.000000000000000e+00  0.000000000000000e+00
44  0.000000000000000e+00  0.000000000000000e+00  0.000000000000000e+00  0.000000000000000e+00  0.000000000000000e+00  0.000000000000000e+00
45  0.000000000000000e+00  0.000000000000000e+00  0.000000000000000e+00  0.000000000000000e+00  0.000000000000000e+00  0.000000000000000e+00
46  0.000000000000000e+00  0.000000000000000e+00  0.000000000000000e+00  0.000000000000000e+00  0.000000000000000e+00  0.000000000000000e+00
47  0.000000000000000e+00  0.000000000000000e+00  0.000000000000000e+00  0.000000000000000e+00  0.000000000000000e+00  0.000000000000000e+00
48  0.000000000000000e+00  0.000000000000000e+00  0.000000000000000e+00  0.000000000000000e+00  0.000000000000000e+00  0.000000000000000e+00
49  0.000000000000000e+00  0.000000000000000e+00  0.000000000000000e+00  0.000000000000000e+00  0.000000000000000e+00  0.000000000000000e+00
50  0.000000000000000e+00  0.000000000000000e+00  0.000000000000000e+00  0.000000000000000e+00  0.000000000000000e+00  0.000000000000000e+00
51  0.000000000000000e+00  0.000000000000000e+00  0.000000000000000e+00  0.000000000000000e+00  0.000000000000000e+00  0.000000000000000e+00
52  0.000000000000000e+00  0.000000000000000e+00  0.000000000000000e+00  0.000000000000000e+00  0.000000000000000e+00  0.000000000000000e+00
53  0.000000000000000e+00  0.000000000000000e+00  0.000000000000000e+00  0.000000000000000e+00  0.000000000000000e+00  0.000000000000000e+00
54  0.000000000000000e+00  0.000000000000000e+00  0.000000000000000e+00  0.000000000000000e+00  0.000000000000000e+00  0.000000000000000e+00
55  0.000000000000000e+00  0.000000000000000e+00  0.000000000000000e+00  0.000000000000000e+00  0.000000000000000e+00  0.000000000000000e+00
56  0.000000000000000e+00  0.000000000000000e+00  0.000000000000000e+00  0.000000000000000e+00  0.000000000000000e+00  0.000000000000000e+00
57  0.000000000000000e+00  0.000000000000000e+00  0.000000000000000e+00  0.000000000000000e+00  0.000000000000000e+00  0.000000000000000e+00
58  0.000000000000000e+00  0.000000000000000e+00  0.000000000000000e+00  0.000000000000000e+00  0.000000000000000e+00  0.000000000000000e+00
59  0.000000000000000e+00  0.000000000000000e+00  0.000000000000000e+00  0.000000000000000e+00  0.000000000000000e+00  0.000000000000000e+00
60  0.000000000000000e+00  0.000000000000000e+00  0.000000000000000e+00  0.000000000000000e+00  0.000000000000000e+00  0.000000000000000e+00
61  0.000000000000000e+00  0.000000000000000e+00  0.000000000000000e+00  0.000000000000000e+00  0.000000000000000e+00  0.000000000000000e+00
62  0.000000000000000e+00  0.000000000000000e+00  0.000000000000000e+00  0.000000000000000e+00  0.000000000000000e+00  0.000000000000000e+00
63  0.000000000000000e+00  0.000000000000000e+00  0.000000000000000e+00  0.000000000000000e+00  0.000000000000000e+00  0.000000000000000e+00
64  0.000000000000000e+00  0.000000000000000e+00  0.000000000000000e+00  0.000000000000000e+00  0.000000000000000e+00  0.000000000000000e+00
65  0.000000000000000e+00  0.000000000000000e+00  0.000000000000000e+00  0.000000000000000e+00  0.000000000000000e+00  0.000000000000000e+00
66  0.000000000000000e+00  0.000000000000000e+00  0.000000000000000e+00  0.000000000000000e+00  0.000000000000000e+00  0.000000000000000e+00
67  0.000000000000000e+00  0.000000000000000e+00  0.000000000000000e+00  0.000000000000000e+00  0.000000000000000e+00  0.000000000000000e+00
68  0.000000000000000e+00  0.000000000000000e+00  0.000000000000000e+00  0.000000000000000e+00  0.000000000000000e+00  0.000000000000000e+00
69  0.000000000000000e+00  0.000000000000000e+00  0.000000000000000e+00  0.000000000000000e+00  0.000000000000000e+00  0.000000000000000e+00
70  0.000000000000000e+00  0.000000000000000e+00  0.000000000000000e+00  0.000000000000000e+00  0.000000000000000e+00  0.000000000000000e+00
71  0.000000000000000e+00  0.000000000000000e+00  0.000000000000000e+00  0.000000000000000e+00  0.000000000000000e+00  0.000000000000000e+00
72  0.000000000000000e+00  0.000000000000000e+00  0.000000000000000e+00  0.000000000000000e+00  0.000000000000000e+00  0.000000000000000e+00