LAMMPS (29 Sep 2021 - Update 2)
#The sequence-specific interactions can be turned on/off choosing between seqdep/seqav
variable seqspec index seqdep

#Specify the temperature of the system (0.1 in SU is equivalent to 300K)
variable tem equal 0.1


### Salt concentration  ####
############################
#Specify the salt concentration the system (1.0 in SU is equivalent to 1M [NaCl])
variable sc   equal 0.15

#Effective charge in elementary charges
variable qeff equal 0.815


### Stacking parameters ####
############################
#Temperature-independent coefficient in stacking strength
variable xi    equal 1.3523

#Coefficient of linear temperature dependence in stacking strength
variable kappa equal 2.6717


### Hbond parameters ####
#########################
#Energy: 1.0678 (between base pairs A-T and C-G) and 0 (all other pairs)
variable eps equal 1.0678


#5.- The damp parameter. The default value is 0.03. The accelerated value is 1.0
variable tdamp    equal 0.03
variable tdampacc equal 2.5


#6.- The total number of nucleotides in the system
variable N equal 147

variable seed equal 402987

#The times
variable dumpfreq   equal 100000
variable trestart   equal 10000000

#total running time
variable runtime1 equal 180000000
variable runtime2 equal 200000000



units lj

dimension 3

newton off

boundary  p p p

atom_style hybrid bond ellipsoid oxdna
WARNING: Write_data command requires newton on to preserve 3'->5' bond polarity (../atom_vec_oxdna.cpp:52)
WARNING: Atom style hybrid defines both, per-type and per-atom masses; both must be set, but only per-atom masses will be used (../atom_vec_hybrid.cpp:157)
atom_modify sort 0 1.0

# Pair interactions require lists of neighbours to be calculated
neighbor 2.0 bin
neigh_modify every 1 delay 0 check yes

restart ${trestart} oxDNA.equil.N${N}.Restart
restart 10000000 oxDNA.equil.N${N}.Restart
restart 10000000 oxDNA.equil.N147.Restart
read_data val4.lammps.txt
Reading data file ...
  orthogonal box = (0.0000000 0.0000000 0.0000000) to (33.000000 33.000000 33.000000)
  1 by 1 by 1 MPI processor grid
  reading atoms ...
  186 atoms
  reading velocities ...
  186 velocities
  186 ellipsoids
  scanning bonds ...
  2 = max bonds/atom
  reading bonds ...
  182 bonds
Finding 1-2 1-3 1-4 neighbors ...
  special bond factors lj:    0        0        0       
  special bond factors coul:  0        0        0       
     2 = max # of 1-2 neighbors
     2 = max # of 1-3 neighbors
     4 = max # of 1-4 neighbors
     6 = max # of special neighbors
  special bonds CPU = 0.000 seconds
  read_data CPU = 0.033 seconds
#read_restart data/oxDNA.equil.N${N}.Restart.20000000
#reset_timestep 0

set atom * mass 3.1575
Setting atom values ...
  186 settings made for mass

#Groups
group all type 1:4
186 atoms in group all


# oxDNA2 bond interactions - FENE backbone
bond_style oxdna2/fene
bond_coeff * 2.0 0.25 0.7564
special_bonds lj 0 1 1
Finding 1-2 1-3 1-4 neighbors ...
  special bond factors lj:    0        1        1       
  special bond factors coul:  0        0        0       
     2 = max # of 1-2 neighbors
     2 = max # of 1-3 neighbors
     4 = max # of 1-4 neighbors
     6 = max # of special neighbors
  special bonds CPU = 0.000 seconds

# oxDNA2 pair interactions
pair_style hybrid/overlay oxdna2/excv oxdna2/stk oxdna2/hbond oxdna2/xstk oxdna2/coaxstk oxdna2/dh
pair_coeff * * oxdna2/excv               2.0 0.7 0.675 2.0 0.515 0.5 2.0 0.33 0.32
pair_coeff * * oxdna2/stk     ${seqspec} ${tem} ${xi} ${kappa} 6.0 0.4 0.9 0.32 0.75 1.3 0 0.8 0.9 0 0.95 0.9 0 0.95 2.0 0.65 2.0 0.65
pair_coeff * * oxdna2/stk     seqdep ${tem} ${xi} ${kappa} 6.0 0.4 0.9 0.32 0.75 1.3 0 0.8 0.9 0 0.95 0.9 0 0.95 2.0 0.65 2.0 0.65
pair_coeff * * oxdna2/stk     seqdep 0.1 ${xi} ${kappa} 6.0 0.4 0.9 0.32 0.75 1.3 0 0.8 0.9 0 0.95 0.9 0 0.95 2.0 0.65 2.0 0.65
pair_coeff * * oxdna2/stk     seqdep 0.1 1.3523 ${kappa} 6.0 0.4 0.9 0.32 0.75 1.3 0 0.8 0.9 0 0.95 0.9 0 0.95 2.0 0.65 2.0 0.65
pair_coeff * * oxdna2/stk     seqdep 0.1 1.3523 2.6717 6.0 0.4 0.9 0.32 0.75 1.3 0 0.8 0.9 0 0.95 0.9 0 0.95 2.0 0.65 2.0 0.65
pair_coeff * * oxdna2/hbond   ${seqspec} 0.0 8.0 0.4 0.75 0.34 0.7 1.5 0 0.7 1.5 0 0.7 1.5 0 0.7 0.46 3.141592653589793 0.7 4.0 1.5707963267948966 0.45 4.0 1.5707963267948966 0.45
pair_coeff * * oxdna2/hbond   seqdep 0.0 8.0 0.4 0.75 0.34 0.7 1.5 0 0.7 1.5 0 0.7 1.5 0 0.7 0.46 3.141592653589793 0.7 4.0 1.5707963267948966 0.45 4.0 1.5707963267948966 0.45
pair_coeff 1 4 oxdna2/hbond   ${seqspec} ${eps} 8.0 0.4 0.75 0.34 0.7 1.5 0 0.7 1.5 0 0.7 1.5 0 0.7 0.46 3.141592653589793 0.7 4.0 1.5707963267948966 0.45 4.0 1.5707963267948966 0.45
pair_coeff 1 4 oxdna2/hbond   seqdep ${eps} 8.0 0.4 0.75 0.34 0.7 1.5 0 0.7 1.5 0 0.7 1.5 0 0.7 0.46 3.141592653589793 0.7 4.0 1.5707963267948966 0.45 4.0 1.5707963267948966 0.45
pair_coeff 1 4 oxdna2/hbond   seqdep 1.0678 8.0 0.4 0.75 0.34 0.7 1.5 0 0.7 1.5 0 0.7 1.5 0 0.7 0.46 3.141592653589793 0.7 4.0 1.5707963267948966 0.45 4.0 1.5707963267948966 0.45
pair_coeff 2 3 oxdna2/hbond   ${seqspec} ${eps} 8.0 0.4 0.75 0.34 0.7 1.5 0 0.7 1.5 0 0.7 1.5 0 0.7 0.46 3.141592653589793 0.7 4.0 1.5707963267948966 0.45 4.0 1.5707963267948966 0.45
pair_coeff 2 3 oxdna2/hbond   seqdep ${eps} 8.0 0.4 0.75 0.34 0.7 1.5 0 0.7 1.5 0 0.7 1.5 0 0.7 0.46 3.141592653589793 0.7 4.0 1.5707963267948966 0.45 4.0 1.5707963267948966 0.45
pair_coeff 2 3 oxdna2/hbond   seqdep 1.0678 8.0 0.4 0.75 0.34 0.7 1.5 0 0.7 1.5 0 0.7 1.5 0 0.7 0.46 3.141592653589793 0.7 4.0 1.5707963267948966 0.45 4.0 1.5707963267948966 0.45
pair_coeff * * oxdna2/xstk               47.5 0.575 0.675 0.495 0.655 2.25 0.791592653589793 0.58 1.7 1.0 0.68 1.7 1.0 0.68 1.5 0 0.65 1.7 0.875 0.68 1.7 0.875 0.68
pair_coeff * * oxdna2/coaxstk            58.5 0.4 0.6 0.22 0.58 2.0 2.891592653589793 0.65 1.3 0 0.8 0.9 0 0.95 0.9 0 0.95 40.0 3.116592653589793
pair_coeff * * oxdna2/dh                 ${tem} ${sc} ${qeff}
pair_coeff * * oxdna2/dh                 0.1 ${sc} ${qeff}
pair_coeff * * oxdna2/dh                 0.1 0.15 ${qeff}
pair_coeff * * oxdna2/dh                 0.1 0.15 0.815


# NVE ensemble
fix 1 all nve/asphere
fix 2 all langevin ${tem} ${tem} ${tdamp} ${seed} angmom 10
fix 2 all langevin 0.1 ${tem} ${tdamp} ${seed} angmom 10
fix 2 all langevin 0.1 0.1 ${tdamp} ${seed} angmom 10
fix 2 all langevin 0.1 0.1 0.03 ${seed} angmom 10
fix 2 all langevin 0.1 0.1 0.03 402987 angmom 10
timestep 1e-3


#Useful commands when running in parallel
#comm_style tiled
#fix 3 all balance 10000 1.1 rcb
#comm_modify cutoff 2.65

thermo 10000
thermo_style custom  step  temp

compute erot all erotate/asphere
compute ekin all ke
compute epot all pe
variable erot equal c_erot
variable ekin equal c_ekin
variable epot equal c_epot
variable etot equal c_erot+c_ekin+c_epot
fix 4 all print ${dumpfreq} "$(step)  ekin = ${ekin} |  erot = ${erot} | epot = ${epot} | etot = ${etot}" screen no append energy_total.txt
fix 4 all print 100000 "$(step)  ekin = ${ekin} |  erot = ${erot} | epot = ${epot} | etot = ${etot}" screen no append energy_total.txt

shell mkdir data
shell cd data

#compute shape all property/atom shapex shapey shapez
compute quat all property/atom quatw quati quatj quatk

dump out all custom ${dumpfreq} out.data id mol type x y z ix iy iz c_quat[1] c_quat[2] c_quat[3] c_quat[4]
dump out all custom 100000 out.data id mol type x y z ix iy iz c_quat[1] c_quat[2] c_quat[3] c_quat[4]
dump_modify out sort id
dump_modify out format line "%d %d %d %.6le %.6le %.6le %d %d %d %.6le %.6le %.6le %.6le"

run ${runtime1}
run 180000000
Neighbor list info ...
  update every 1 steps, delay 0 steps, check yes
  max neighbors/atom: 2000, page size: 100000
  master list distance cutoff = 6.2019411
  ghost atom cutoff = 6.2019411
  binsize = 3.1009705, bins = 11 11 11
  5 neighbor lists, perpetual/occasional/extra = 5 0 0
  (1) pair oxdna2/excv, perpetual
      attributes: half, newton off
      pair build: half/bin/newtoff
      stencil: full/bin/3d
      bin: standard
  (2) pair oxdna2/hbond, perpetual, copy from (1)
      attributes: half, newton off
      pair build: copy
      stencil: none
      bin: none
  (3) pair oxdna2/xstk, perpetual, copy from (1)
      attributes: half, newton off
      pair build: copy
      stencil: none
      bin: none
  (4) pair oxdna2/coaxstk, perpetual, copy from (1)
      attributes: half, newton off
      pair build: copy
      stencil: none
      bin: none
  (5) pair oxdna2/dh, perpetual, copy from (1)
      attributes: half, newton off
      pair build: copy
      stencil: none
      bin: none
WARNING: FENE bond too long: 0 28 27 1.4050945578006682 (../bond_oxdna_fene.cpp:209)
WARNING: FENE bond too long: 0 27 28 1.4050945578006673 (../bond_oxdna_fene.cpp:209)
WARNING: FENE bond too long: 0 75 74 1.4226252666859325 (../bond_oxdna_fene.cpp:209)
WARNING: FENE bond too long: 0 74 75 1.4226252666859323 (../bond_oxdna_fene.cpp:209)
WARNING: FENE bond too long: 0 122 121 1.5353125129663365 (../bond_oxdna_fene.cpp:209)
WARNING: FENE bond too long: 0 121 122 1.5353125129663399 (../bond_oxdna_fene.cpp:209)
WARNING: FENE bond too long: 0 168 167 1.6506908647093466 (../bond_oxdna_fene.cpp:209)
WARNING: FENE bond too long: 0 167 168 1.6506908647093481 (../bond_oxdna_fene.cpp:209)
Per MPI rank memory allocation (min/avg/max) = 9.727 | 9.727 | 9.727 Mbytes
Step Temp 
       0            0 
WARNING: FENE bond too long: 1 28 27 1.4047033273445224 (../bond_oxdna_fene.cpp:209)
WARNING: FENE bond too long: 1 27 28 1.4047033273445202 (../bond_oxdna_fene.cpp:209)
WARNING: FENE bond too long: 1 75 74 1.4226044351649283 (../bond_oxdna_fene.cpp:209)
WARNING: FENE bond too long: 1 74 75 1.422604435164929 (../bond_oxdna_fene.cpp:209)
WARNING: FENE bond too long: 1 122 121 1.5348887408876228 (../bond_oxdna_fene.cpp:209)
WARNING: FENE bond too long: 1 121 122 1.5348887408876206 (../bond_oxdna_fene.cpp:209)
WARNING: FENE bond too long: 1 168 167 1.6505666500545788 (../bond_oxdna_fene.cpp:209)
WARNING: FENE bond too long: 1 167 168 1.6505666500545773 (../bond_oxdna_fene.cpp:209)
WARNING: FENE bond too long: 2 28 27 1.403545836183056 (../bond_oxdna_fene.cpp:209)
WARNING: FENE bond too long: 2 27 28 1.4035458361830524 (../bond_oxdna_fene.cpp:209)
WARNING: FENE bond too long: 2 75 74 1.422356386533752 (../bond_oxdna_fene.cpp:209)
WARNING: FENE bond too long: 2 74 75 1.4223563865337514 (../bond_oxdna_fene.cpp:209)
WARNING: FENE bond too long: 2 122 121 1.5341465572828705 (../bond_oxdna_fene.cpp:209)
WARNING: FENE bond too long: 2 121 122 1.5341465572828736 (../bond_oxdna_fene.cpp:209)
WARNING: FENE bond too long: 2 168 167 1.6499641780960688 (../bond_oxdna_fene.cpp:209)
WARNING: FENE bond too long: 2 167 168 1.6499641780960663 (../bond_oxdna_fene.cpp:209)
WARNING: FENE bond too long: 3 28 27 1.402655102334253 (../bond_oxdna_fene.cpp:209)
WARNING: FENE bond too long: 3 27 28 1.4026551023342553 (../bond_oxdna_fene.cpp:209)
WARNING: FENE bond too long: 3 75 74 1.421742220112521 (../bond_oxdna_fene.cpp:209)
WARNING: FENE bond too long: 3 74 75 1.4217422201125227 (../bond_oxdna_fene.cpp:209)
WARNING: FENE bond too long: 3 122 121 1.5332214244134974 (../bond_oxdna_fene.cpp:209)
WARNING: FENE bond too long: 3 121 122 1.5332214244134983 (../bond_oxdna_fene.cpp:209)
WARNING: FENE bond too long: 3 168 167 1.649536349665537 (../bond_oxdna_fene.cpp:209)
WARNING: FENE bond too long: 3 167 168 1.649536349665536 (../bond_oxdna_fene.cpp:209)
WARNING: FENE bond too long: 4 28 27 1.4010265057804219 (../bond_oxdna_fene.cpp:209)
WARNING: FENE bond too long: 4 27 28 1.4010265057804199 (../bond_oxdna_fene.cpp:209)
WARNING: FENE bond too long: 4 75 74 1.4209947244683063 (../bond_oxdna_fene.cpp:209)
WARNING: FENE bond too long: 4 74 75 1.4209947244683037 (../bond_oxdna_fene.cpp:209)
WARNING: FENE bond too long: 4 122 121 1.5320749885267744 (../bond_oxdna_fene.cpp:209)
WARNING: FENE bond too long: 4 121 122 1.532074988526774 (../bond_oxdna_fene.cpp:209)
WARNING: FENE bond too long: 4 168 167 1.649016876651401 (../bond_oxdna_fene.cpp:209)
WARNING: FENE bond too long: 4 167 168 1.6490168766513993 (../bond_oxdna_fene.cpp:209)
WARNING: FENE bond too long: 5 28 27 1.3993468990205313 (../bond_oxdna_fene.cpp:209)
WARNING: FENE bond too long: 5 27 28 1.399346899020533 (../bond_oxdna_fene.cpp:209)
WARNING: FENE bond too long: 5 75 74 1.4198417535723384 (../bond_oxdna_fene.cpp:209)
WARNING: FENE bond too long: 5 74 75 1.4198417535723347 (../bond_oxdna_fene.cpp:209)
WARNING: FENE bond too long: 5 122 121 1.5308100843424568 (../bond_oxdna_fene.cpp:209)
WARNING: FENE bond too long: 5 121 122 1.530810084342454 (../bond_oxdna_fene.cpp:209)
WARNING: FENE bond too long: 5 168 167 1.6483539620258472 (../bond_oxdna_fene.cpp:209)
WARNING: FENE bond too long: 5 167 168 1.6483539620258527 (../bond_oxdna_fene.cpp:209)
WARNING: FENE bond too long: 6 28 27 1.397510542859545 (../bond_oxdna_fene.cpp:209)
WARNING: FENE bond too long: 6 27 28 1.397510542859542 (../bond_oxdna_fene.cpp:209)
WARNING: FENE bond too long: 6 75 74 1.418299891909805 (../bond_oxdna_fene.cpp:209)
WARNING: FENE bond too long: 6 74 75 1.4182998919098055 (../bond_oxdna_fene.cpp:209)
WARNING: FENE bond too long: 6 122 121 1.5296502225935689 (../bond_oxdna_fene.cpp:209)
WARNING: FENE bond too long: 6 121 122 1.5296502225935684 (../bond_oxdna_fene.cpp:209)
WARNING: FENE bond too long: 6 168 167 1.6474809202768552 (../bond_oxdna_fene.cpp:209)
WARNING: FENE bond too long: 6 167 168 1.6474809202768532 (../bond_oxdna_fene.cpp:209)
WARNING: FENE bond too long: 7 28 27 1.395450839489883 (../bond_oxdna_fene.cpp:209)
WARNING: FENE bond too long: 7 27 28 1.3954508394898804 (../bond_oxdna_fene.cpp:209)
WARNING: FENE bond too long: 7 75 74 1.4169394272745965 (../bond_oxdna_fene.cpp:209)
WARNING: FENE bond too long: 7 74 75 1.4169394272745977 (../bond_oxdna_fene.cpp:209)
WARNING: FENE bond too long: 7 122 121 1.5280122440452915 (../bond_oxdna_fene.cpp:209)
WARNING: FENE bond too long: 7 121 122 1.5280122440452937 (../bond_oxdna_fene.cpp:209)
WARNING: FENE bond too long: 7 168 167 1.6461397000663904 (../bond_oxdna_fene.cpp:209)
WARNING: FENE bond too long: 7 167 168 1.6461397000663907 (../bond_oxdna_fene.cpp:209)
WARNING: FENE bond too long: 8 28 27 1.3935345663167231 (../bond_oxdna_fene.cpp:209)
WARNING: FENE bond too long: 8 27 28 1.3935345663167276 (../bond_oxdna_fene.cpp:209)
WARNING: FENE bond too long: 8 75 74 1.4154403747286515 (../bond_oxdna_fene.cpp:209)
WARNING: FENE bond too long: 8 74 75 1.4154403747286541 (../bond_oxdna_fene.cpp:209)
WARNING: FENE bond too long: 8 122 121 1.5260071560943256 (../bond_oxdna_fene.cpp:209)
WARNING: FENE bond too long: 8 121 122 1.5260071560943265 (../bond_oxdna_fene.cpp:209)
WARNING: FENE bond too long: 8 168 167 1.644095126014826 (../bond_oxdna_fene.cpp:209)
WARNING: FENE bond too long: 8 167 168 1.6440951260148295 (../bond_oxdna_fene.cpp:209)
WARNING: FENE bond too long: 9 28 27 1.3916403436193954 (../bond_oxdna_fene.cpp:209)
WARNING: FENE bond too long: 9 27 28 1.3916403436193963 (../bond_oxdna_fene.cpp:209)
WARNING: FENE bond too long: 9 75 74 1.4132645729519995 (../bond_oxdna_fene.cpp:209)
WARNING: FENE bond too long: 9 74 75 1.413264572952002 (../bond_oxdna_fene.cpp:209)
WARNING: FENE bond too long: 9 122 121 1.523753278262409 (../bond_oxdna_fene.cpp:209)
WARNING: FENE bond too long: 9 121 122 1.5237532782624148 (../bond_oxdna_fene.cpp:209)
WARNING: FENE bond too long: 9 168 167 1.6416464649121847 (../bond_oxdna_fene.cpp:209)
WARNING: FENE bond too long: 9 167 168 1.641646464912186 (../bond_oxdna_fene.cpp:209)
WARNING: FENE bond too long: 10 28 27 1.3892793352515194 (../bond_oxdna_fene.cpp:209)
WARNING: FENE bond too long: 10 27 28 1.389279335251517 (../bond_oxdna_fene.cpp:209)
WARNING: FENE bond too long: 10 75 74 1.4114239519862155 (../bond_oxdna_fene.cpp:209)
WARNING: FENE bond too long: 10 74 75 1.411423951986218 (../bond_oxdna_fene.cpp:209)
WARNING: FENE bond too long: 10 122 121 1.5211109752224443 (../bond_oxdna_fene.cpp:209)
WARNING: FENE bond too long: 10 121 122 1.5211109752224432 (../bond_oxdna_fene.cpp:209)
WARNING: FENE bond too long: 10 168 167 1.639048832092861 (../bond_oxdna_fene.cpp:209)
WARNING: FENE bond too long: 10 167 168 1.6390488320928607 (../bond_oxdna_fene.cpp:209)
WARNING: FENE bond too long: 11 28 27 1.387264951778901 (../bond_oxdna_fene.cpp:209)
WARNING: FENE bond too long: 11 27 28 1.3872649517789042 (../bond_oxdna_fene.cpp:209)
WARNING: FENE bond too long: 11 75 74 1.4094058312474487 (../bond_oxdna_fene.cpp:209)
WARNING: FENE bond too long: 11 74 75 1.4094058312474471 (../bond_oxdna_fene.cpp:209)
WARNING: FENE bond too long: 11 122 121 1.5186554956104628 (../bond_oxdna_fene.cpp:209)
WARNING: FENE bond too long: 11 121 122 1.5186554956104648 (../bond_oxdna_fene.cpp:209)
WARNING: FENE bond too long: 11 168 167 1.63625768486203 (../bond_oxdna_fene.cpp:209)
WARNING: FENE bond too long: 11 167 168 1.6362576848620325 (../bond_oxdna_fene.cpp:209)
WARNING: FENE bond too long: 12 28 27 1.3855717376058845 (../bond_oxdna_fene.cpp:209)
WARNING: FENE bond too long: 12 27 28 1.385571737605882 (../bond_oxdna_fene.cpp:209)
WARNING: Too many warnings: 1513 vs 100. All future warnings will be suppressed (../thermo.cpp:422)
   10000  0.089077087 
   20000  0.093014293 
   30000   0.10152812 
   40000   0.11197863 
   50000  0.085844512 
   60000  0.092334585 
   70000  0.096782813 
   80000   0.11200275 
   90000  0.099915079 
  100000   0.10165262 
  110000   0.10351475 
  120000   0.10806176 
  130000   0.11192017 
  140000   0.10122339 
  150000   0.10199157 
  160000    0.1011257 
  170000   0.10071742 
  180000  0.099338112 
  190000  0.094372344 
  200000   0.10401074 
  210000   0.10199777 
  220000   0.10244656 
  230000    0.1003723 
  240000   0.10591528 
  250000  0.093872187 
  260000   0.10489082 
  270000  0.096017309 
  280000  0.092773505 
  290000   0.10141937 
  300000   0.09979864 
  310000   0.10605205 
  320000   0.11272021 
  330000  0.099590925 
  340000  0.093369246 
  350000   0.10740909 
  360000   0.10830151 
  370000   0.10152063 
  380000   0.10998396 
  390000   0.11027888 
  400000  0.096444863 
  410000   0.09801981 
  420000   0.10304689 
  430000  0.098654155 
  440000  0.094299143 
  450000   0.10044539 
  460000  0.099472216 
  470000  0.091923648 
  480000   0.10789821 
  490000   0.10062731 
  500000   0.10356384 
  510000   0.10021721 
  520000   0.10037825 
  530000   0.10262394 
  540000   0.10298089 
  550000  0.097805989 
  560000   0.10464867 
  570000   0.10801854 
  580000  0.097869661 
  590000   0.10640594 
  600000  0.086970757 
  610000    0.1026366 
  620000   0.10445751 
  630000   0.09904948 
  640000  0.096914711 
  650000    0.1007142 
  660000  0.098015807 
  670000  0.099942595 
  680000    0.1019396 
  690000   0.11183759 
  700000  0.096610985 
  710000   0.10268253 
  720000    0.1034563 
  730000  0.099226503 
  740000   0.10441429 
  750000   0.10657311 
  760000    0.1111312 
  770000   0.10234504 
  780000   0.10731638 
  790000  0.092681873 
  800000   0.10735556 
  810000   0.09175607 
  820000  0.092706217 
  830000  0.098343053 
  840000   0.10143036 
  850000   0.10210031 
  860000  0.096479992 
  870000  0.097498114 
  880000   0.10140789 
  890000  0.099571073 
  900000  0.097667724 
  910000   0.10310508 
  920000  0.095433054 
  930000   0.10063694 
  940000  0.099579914 
  950000    0.1081122 
  960000   0.10477063 
  970000  0.096273275 
  980000   0.10570089 
  990000  0.089147144 
 1000000   0.10084011 
 1010000   0.10169386 
 1020000  0.090318124 
 1030000  0.089286206 
 1040000   0.10717703 
 1050000   0.10161597 
 1060000   0.10179771 
 1070000   0.10000166 
 1080000   0.10186804 
 1090000   0.10814418 
 1100000   0.10228027 
 1110000  0.090273944 
 1120000  0.093069169 
 1130000  0.098246977 
 1140000  0.097184496 
 1150000   0.10399265 
 1160000   0.10329685 
 1170000  0.094148754 
 1180000   0.10799441 
 1190000   0.10021135 
 1200000   0.10013488 
 1210000  0.090749103 
 1220000  0.099907509 
 1230000  0.092467126 
 1240000   0.10029281 
 1250000  0.099087869 
 1260000  0.091195579 
 1270000   0.11503664 
 1280000  0.098971861 
 1290000  0.098807122 
 1300000  0.098201419 
 1310000  0.096040436 
 1320000  0.097970173 
 1330000  0.098841867 
 1340000  0.097797204 
 1350000   0.10492351 
 1360000   0.10064139 
 1370000   0.10250177 
 1380000   0.10201587 
 1390000  0.097861288 
 1400000     0.103764 
 1410000   0.10044649 
 1420000   0.10673491 
 1430000  0.099402468 
 1440000   0.08618119 
 1450000  0.098761259 
 1460000   0.10377082 
 1470000   0.11018757 
 1480000  0.092235276 
 1490000   0.10231085 
 1500000   0.10079555 
 1510000  0.092540587 
 1520000  0.098806392 
 1530000   0.10269583 
 1540000   0.09273264 
 1550000   0.10296298 
 1560000  0.097532996 
 1570000  0.088048201 
 1580000   0.10890364 
 1590000   0.10061458 
 1600000  0.094165206 
 1610000   0.10467996 
 1620000  0.093879403 
 1630000   0.10807694 
 1640000   0.10305086 
 1650000  0.099255153 
 1660000   0.10272015 
 1670000  0.099060455 
 1680000  0.098348062 
 1690000   0.10109764 
 1700000   0.10065274 
 1710000   0.10294763 
 1720000  0.096366866 
 1730000    0.1051875 
 1740000  0.096579031 
 1750000  0.097829418 
 1760000   0.10752708 
 1770000   0.10421218 
 1780000  0.090014242 
 1790000   0.10054487 
 1800000    0.1013102 
 1810000  0.093048904 
 1820000   0.11037716 
 1830000   0.10214554 
 1840000   0.10445412 
 1850000   0.10281894 
 1860000  0.089517595 
 1870000   0.10178028 
 1880000   0.10316148 
 1890000  0.099439464 
 1900000   0.10331934 
 1910000   0.10303293 
 1920000   0.10004524 
 1930000   0.10649505 
 1940000   0.10014603 
 1950000   0.10218989 
 1960000   0.10493692 
 1970000   0.11000171 
 1980000   0.11655694 
 1990000  0.084402538 
 2000000  0.097957282 
 2010000   0.11175631 
 2020000  0.099761454 
 2030000   0.10137085 
 2040000  0.099858459 
 2050000  0.092683718 
 2060000   0.10163458 
 2070000  0.097859409 
 2080000    0.1037238 
 2090000   0.09563313 
 2100000  0.098003061 
 2110000  0.099978562 
 2120000  0.095407012 
 2130000   0.10219097 
 2140000  0.088107616 
 2150000   0.10798124 
 2160000  0.099277864 
 2170000  0.097876483 
 2180000  0.098208228 
 2190000   0.10511748 
 2200000  0.098878015 
 2210000  0.095720993 
 2220000    0.1114975 
 2230000   0.09609373 
 2240000  0.098127826 
 2250000   0.11326172 
 2260000   0.10694258 
 2270000   0.10438224 
 2280000  0.099694063 
 2290000   0.10111709 
 2300000   0.10902059 
 2310000   0.10764782 
 2320000   0.11031792 
 2330000   0.10408793 
 2340000   0.11310688 
 2350000   0.10193871 
 2360000  0.098651029 
 2370000   0.11361594 
 2380000  0.097732245 
 2390000   0.10224361 
 2400000   0.11127222 
 2410000   0.09409694 
 2420000  0.096724274 
 2430000   0.09211064 
 2440000   0.10257754 
 2450000  0.099346537 
 2460000   0.10342413 
 2470000  0.096064172 
 2480000   0.10011201 
 2490000   0.10007115 
 2500000  0.098497428 
 2510000   0.10241371 
 2520000  0.091567332 
 2530000  0.099982598 
 2540000  0.095579533 
 2550000   0.10088712 
 2560000    0.1028301 
 2570000   0.11218611 
 2580000  0.094630033 
 2590000  0.099461244 
 2600000  0.094770129 
 2610000   0.10308073 
 2620000   0.10888115 
 2630000  0.090312627 
 2640000   0.10084921 
 2650000   0.10136537 
 2660000   0.10256841 
 2670000  0.099706886 
 2680000   0.10137075 
 2690000   0.09470351 
 2700000  0.099287568 
 2710000   0.10546605 
 2720000  0.096138167 
 2730000  0.091947932 
 2740000  0.098742822 
 2750000  0.091979595 
 2760000   0.09310605 
 2770000   0.10631822 
 2780000  0.098922398 
 2790000  0.094625041 
 2800000   0.10267986 
 2810000  0.094523982 
 2820000    0.1011097 
 2830000  0.094469103 
 2840000  0.097006174 
 2850000   0.10790213 
 2860000  0.098130519 
 2870000    0.1020101 
 2880000  0.097682712 
 2890000  0.091989573 
 2900000  0.092080888 
 2910000   0.10584492 
 2920000  0.089525576 
 2930000   0.10516959 
 2940000  0.095813337 
 2950000  0.098879265 
 2960000  0.097208821 
 2970000  0.095363118 
 2980000   0.10622914 
 2990000   0.10077847 
 3000000   0.10023977 
 3010000  0.095811639 
 3020000   0.10293642 
 3030000  0.095935432 
 3040000   0.10050664 
 3050000   0.10038508 
 3060000   0.10156334 
 3070000  0.091594003 
 3080000   0.10066268 
 3090000  0.093182948 
 3100000   0.10057897 
 3110000   0.10137309 
 3120000  0.093596433 
 3130000  0.092320635 
 3140000  0.092169576 
 3150000  0.097329387 
 3160000  0.093644164 
 3170000   0.10187251 
 3180000   0.09466284 
 3190000   0.10964037 
 3200000  0.094269933 
 3210000   0.10362379 
 3220000    0.1066837 
 3230000  0.093789689 
 3240000   0.10901906 
 3250000   0.10889347 
 3260000   0.10120246 
 3270000  0.096761518 
 3280000   0.10296032 
 3290000   0.10701499 
 3300000   0.10721424 
 3310000   0.11408534 
 3320000    0.1045475 
 3330000   0.10559179 
 3340000  0.099033502 
 3350000   0.10511491 
 3360000   0.10546884 
 3370000  0.092569828 
 3380000   0.10125137 
 3390000  0.090036265 
 3400000  0.099212199 
 3410000  0.099524109 
 3420000  0.097856838 
 3430000  0.092116151 
 3440000  0.083437046 
 3450000   0.11328645 
 3460000   0.10512692 
 3470000  0.093906053 
 3480000  0.091752863 
 3490000  0.096501354 
 3500000  0.094110742 
 3510000  0.099178749 
 3520000   0.10399362 
 3530000   0.10034599 
 3540000   0.09110729 
 3550000  0.098269641 
 3560000   0.10088102 
 3570000   0.10033266 
 3580000  0.095888067 
 3590000   0.10032763 
 3600000   0.10550424 
 3610000   0.10200291 
 3620000  0.098246542 
 3630000   0.10774791 
 3640000  0.092150791 
 3650000   0.10911048 
 3660000  0.095767136 
 3670000  0.097515501 
 3680000    0.1088624 
 3690000  0.094839502 
 3700000  0.095087992 
 3710000   0.10392429 
 3720000   0.09206855 
 3730000  0.088570521 
 3740000   0.10815157 
 3750000   0.10246187 
 3760000   0.10260574 
 3770000   0.10949654 
 3780000   0.10590065 
 3790000  0.098533151 
 3800000  0.098815971 
 3810000  0.093866307 
 3820000  0.092682997 
 3830000  0.090846943 
 3840000   0.10966256 
 3850000  0.099667384 
 3860000  0.094118274 
 3870000   0.10733164 
 3880000   0.10269544 
 3890000   0.10126881 
 3900000  0.096610613 
 3910000  0.097269519 
 3920000   0.10062867 
 3930000   0.11007016 
 3940000  0.096974188 
 3950000  0.090883063 
 3960000  0.093029995 
 3970000   0.10598117 
 3980000    0.1124655 
 3990000  0.099366291 
 4000000    0.1087735 
 4010000   0.10414824 
 4020000    0.1050717 
 4030000   0.10149414 
 4040000   0.10214307 
 4050000   0.10109268 
 4060000  0.097838658 
 4070000   0.11341239 
 4080000   0.10810621 
 4090000  0.088792609 
 4100000   0.11041668 
 4110000   0.11116926 
 4120000   0.10132655 
 4130000  0.096513301 
 4140000   0.10465605 
 4150000   0.10072541 
 4160000  0.097109081 
 4170000   0.11515869 
 4180000   0.10842156 
 4190000  0.094025322 
 4200000  0.094664729 
 4210000  0.099064893 
 4220000  0.098240839 
 4230000  0.092228457 
 4240000  0.098517505 
 4250000  0.090587088 
 4260000   0.10258777 
 4270000  0.097216702 
 4280000  0.093209541 
 4290000   0.10396107 
 4300000   0.10035949 
 4310000   0.10407267 
 4320000   0.10452679 
 4330000   0.10007565 
 4340000    0.0961951 
 4350000  0.097068303 
 4360000   0.10777861 
 4370000   0.10532424 
 4380000   0.10313911 
 4390000  0.092791632 
 4400000  0.096931362 
 4410000   0.10308782 
 4420000   0.10692543 
 4430000   0.10226286 
 4440000   0.10152448 
 4450000   0.10075312 
 4460000  0.096594305 
 4470000  0.097207223 
 4480000      0.10605 
 4490000   0.10265787 
 4500000   0.10732473 
 4510000   0.10649826 
 4520000   0.10361102 
 4530000   0.10377484 
 4540000  0.099033777 
 4550000  0.091569994 
 4560000   0.11351861 
 4570000  0.097646642 
 4580000   0.10190247 
 4590000   0.09699452 
 4600000  0.093345318 
 4610000    0.1057863 
 4620000  0.097933464 
 4630000  0.094538951 
 4640000   0.10432943 
 4650000   0.10222776 
 4660000  0.093822837 
 4670000   0.09029841 
 4680000   0.10268201 
 4690000    0.1065213 
 4700000   0.10067644 
 4710000  0.098727862 
 4720000  0.091439679 
 4730000   0.10478414 
 4740000     0.104144 
 4750000   0.10140593 
 4760000   0.10378242 
 4770000   0.10394066 
 4780000   0.10162779 
 4790000  0.096862376 
 4800000   0.10726203 
 4810000   0.10115806 
 4820000  0.096885184 
 4830000  0.091676778 
 4840000   0.10676773 
 4850000  0.097295363 
 4860000  0.099544185 
 4870000   0.09220311 
 4880000   0.10564276 
 4890000  0.098612009 
 4900000   0.10399966 
 4910000   0.09750813 
 4920000   0.10173505 
 4930000   0.10511977 
 4940000   0.11118021 
 4950000   0.10380807 
 4960000  0.098328294 
 4970000   0.10246362 
 4980000  0.097446951 
 4990000  0.098042605 
 5000000   0.10881749 
 5010000   0.10088665 
 5020000   0.10476176 
 5030000   0.10098703 
 5040000  0.097708824 
 5050000   0.10033421 
 5060000   0.10199378 
 5070000  0.096765411 
 5080000  0.097196454 
 5090000  0.095952976 
 5100000   0.10709824 
 5110000  0.097064661 
 5120000  0.099313463 
 5130000   0.10463314 
 5140000   0.11412007 
 5150000   0.10492303 
 5160000   0.10621741 
 5170000   0.10752584 
 5180000    0.1120662 
 5190000   0.10421415 
 5200000   0.10374089 
 5210000  0.099569923 
 5220000    0.1043538 
 5230000  0.093916504 
 5240000  0.098705316 
 5250000  0.095325954 
 5260000   0.10383451 
 5270000  0.095738614 
 5280000   0.10201685 
 5290000    0.1057469 
 5300000  0.097533491 
 5310000   0.10627226 
 5320000   0.10535565 
 5330000   0.09749851 
 5340000   0.10330212 
 5350000  0.096663071 
 5360000   0.10250229 
 5370000   0.10359716 
 5380000   0.09232542 
 5390000   0.10282307 
 5400000   0.10782717 
 5410000  0.094514222 
 5420000  0.094004663 
 5430000   0.11190213 
 5440000   0.09379619 
 5450000   0.10706282 
 5460000   0.10053878 
 5470000   0.10978419 
 5480000  0.096008728 
 5490000   0.10444509 
 5500000  0.095669548 
 5510000   0.10095135 
 5520000   0.09504164 
 5530000  0.088198819 
 5540000   0.10501586 
 5550000  0.096325989 
 5560000   0.10276294 
 5570000  0.093015633 
 5580000   0.09795838 
 5590000   0.11059066 
 5600000   0.10396671 
 5610000   0.10484094 
 5620000   0.10851111 
 5630000  0.089302327 
 5640000  0.092933805 
 5650000  0.094844812 
 5660000  0.089224613 
 5670000    0.1030738 
 5680000   0.10133839 
 5690000  0.089224688 
 5700000   0.11198363 
 5710000   0.10455403 
 5720000    0.1088075 
 5730000  0.095743259 
 5740000  0.083412171 
 5750000   0.10313334 
 5760000   0.10120878 
 5770000   0.10149506 
 5780000   0.10110154 
 5790000  0.096161931 
 5800000   0.10772817 
 5810000   0.10964444 
 5820000   0.10247327 
 5830000  0.098562983 
 5840000  0.096168528 
 5850000  0.099930484 
 5860000   0.11438352 
 5870000  0.099963825 
 5880000   0.10288416 
 5890000   0.10523371 
 5900000   0.10449697 
 5910000  0.086477447 
 5920000   0.08716097 
 5930000  0.096800605 
 5940000  0.089002357 
 5950000   0.10285734 
 5960000  0.097028119 
 5970000    0.0959494 
 5980000  0.093064096 
 5990000   0.10080322 
 6000000   0.10598354 
 6010000   0.10152252 
 6020000    0.1040492 
 6030000   0.10116946 
 6040000   0.11552174 
 6050000  0.099214578 
 6060000   0.10053907 
 6070000    0.1018641 
 6080000  0.096830599 
 6090000   0.10325868 
 6100000   0.10119553 
 6110000   0.11236735 
 6120000  0.094536508 
 6130000  0.092024063 
 6140000  0.094257836 
 6150000   0.10084838 
 6160000   0.11241794 
 6170000   0.10202228 
 6180000    0.1019695 
 6190000   0.10037169 
 6200000    0.1035606 
 6210000  0.097236011 
 6220000   0.10046061 
 6230000   0.10001489 
 6240000  0.090049042 
 6250000   0.10021991 
 6260000   0.09373452 
 6270000  0.097192314 
 6280000  0.099694472 
 6290000   0.10536995 
 6300000   0.10772017 
 6310000   0.11054376 
 6320000  0.089798186 
 6330000  0.095493263 
 6340000   0.11578155 
 6350000   0.10301035 
 6360000  0.091047088 
 6370000  0.098260478 
 6380000   0.10370786 
 6390000   0.10459191 
 6400000   0.10679052 
 6410000  0.094873403 
 6420000   0.09753661 
 6430000   0.10146428 
 6440000   0.11227582 
 6450000   0.11081653 
 6460000   0.10444671 
 6470000   0.10288901 
 6480000    0.1084089 
 6490000  0.093556068 
 6500000   0.09823303 
 6510000    0.1058564 
 6520000  0.096115036 
 6530000   0.09709642 
 6540000   0.11028664 
 6550000  0.087174104 
 6560000   0.10605584 
 6570000    0.0876411 
 6580000  0.099693032 
 6590000   0.10829576 
 6600000   0.10667872 
 6610000  0.097641903 
 6620000  0.096081406 
 6630000  0.096562261 
 6640000   0.10865192 
 6650000   0.10873198 
 6660000   0.10695332 
 6670000   0.10478892 
 6680000   0.10155085 
 6690000  0.095931312 
 6700000   0.10171064 
 6710000  0.095100787 
 6720000  0.093145942 
 6730000   0.10717074 
 6740000  0.095109932 
 6750000   0.10287996 
 6760000  0.094943096 
 6770000   0.10167756 
 6780000   0.11250061 
 6790000   0.10248633 
 6800000  0.096209217 
 6810000  0.097207677 
 6820000  0.098174203 
 6830000   0.10230477 
 6840000  0.092454609 
 6850000  0.093498581 
 6860000  0.096994134 
 6870000   0.10050244 
 6880000  0.098310212 
 6890000   0.10236295 
 6900000   0.10363425 
 6910000  0.096518393 
 6920000   0.10486761 
 6930000   0.10331917 
 6940000   0.10009545 
 6950000    0.1215379 
 6960000   0.10511534 
 6970000    0.1028067 
 6980000   0.11936211 
 6990000   0.10590414 
 7000000   0.10078757 
 7010000  0.095511069 
 7020000  0.090552071 
 7030000   0.10524599 
 7040000   0.10745949 
 7050000   0.10447867 
 7060000  0.098830459 
 7070000  0.095443447 
 7080000  0.093677495 
 7090000   0.10613912 
 7100000     0.093866 
 7110000   0.10678164 
 7120000   0.10274577 
 7130000  0.097034083 
 7140000   0.10422283 
 7150000  0.097460432 
 7160000   0.09638762 
 7170000  0.097382641 
 7180000   0.10637324 
 7190000  0.096999142 
 7200000   0.11201226 
 7210000   0.10843236 
 7220000  0.095796266 
 7230000   0.10401024 
 7240000   0.10847468 
 7250000   0.11615697 
 7260000   0.10199086 
 7270000   0.11407451 
 7280000  0.097806899 
 7290000  0.099480639 
 7300000   0.09400827 
 7310000  0.092697079 
 7320000  0.091494234 
 7330000   0.10613413 
 7340000  0.098351428 
 7350000   0.10214178 
 7360000   0.10935537 
 7370000   0.10210268 
 7380000  0.098939458 
 7390000   0.10407219 
 7400000  0.099783431 
 7410000  0.094360427 
 7420000   0.10757281 
 7430000   0.10008343 
 7440000  0.099884795 
 7450000   0.10353478 
 7460000    0.1016398 
 7470000   0.10144706 
 7480000  0.093995623 
 7490000   0.10722774 
 7500000   0.10567408 
 7510000  0.095489303 
 7520000  0.089148119 
 7530000   0.11156291 
 7540000   0.10767802 
 7550000  0.087656826 
 7560000  0.093699936 
 7570000   0.10668145 
 7580000   0.10284578 
 7590000   0.10252331 
 7600000   0.10078462 
 7610000   0.10408887 
 7620000   0.10768522 
 7630000  0.094694159 
 7640000   0.10498495 
 7650000   0.10451474 
 7660000   0.10697868 
 7670000  0.091973525 
 7680000   0.10590571 
 7690000   0.10138125 
 7700000  0.099626515 
 7710000   0.10454421 
 7720000  0.098171714 
 7730000    0.1070082 
 7740000   0.10238339 
 7750000    0.1047545 
 7760000   0.10296564 
 7770000  0.086293278 
 7780000  0.095179566 
 7790000  0.098221539 
 7800000   0.10188576 
 7810000   0.11766962 
 7820000  0.099560007 
 7830000   0.10627404 
 7840000   0.10009267 
 7850000  0.090965406 
 7860000   0.09687061 
 7870000   0.10583619 
 7880000   0.11627805 
 7890000   0.10720278 
 7900000   0.10588786 
 7910000  0.091574524 
 7920000  0.099953488 
 7930000   0.10933853 
 7940000   0.10334879 
 7950000   0.10195628 
 7960000  0.096746224 
 7970000   0.10539321 
 7980000  0.095384595 
 7990000   0.09771945 
 8000000  0.089594333 
 8010000  0.097466681 
 8020000  0.097555871 
 8030000   0.10222083 
 8040000  0.093274334 
 8050000   0.11008813 
 8060000   0.10035269 
 8070000   0.10595378 
 8080000   0.10679386 
 8090000  0.097762245 
 8100000   0.09925062 
 8110000   0.10062911 
 8120000  0.092106043 
 8130000   0.10967924 
 8140000   0.10078187 
 8150000  0.099170213 
 8160000   0.09896159 
 8170000  0.094248881 
 8180000  0.092384667 
 8190000   0.10900321 
 8200000  0.095087699 
 8210000  0.094456899 
 8220000  0.090427484 
 8230000   0.10776631 
 8240000   0.10628724 
 8250000   0.10290893 
 8260000  0.093858676 
 8270000   0.10983472 
 8280000  0.099847084 
 8290000  0.097532919 
 8300000  0.099170021 
 8310000  0.092190539 
 8320000  0.096545584 
 8330000  0.094513056 
 8340000  0.099508833 
 8350000   0.10787997 
 8360000   0.11175454 
 8370000   0.11697175 
 8380000   0.10718263 
 8390000  0.095498649 
 8400000   0.10463209 
 8410000    0.1069289 
 8420000   0.10018412 
 8430000   0.11137913 
 8440000   0.10310648 
 8450000   0.10324128 
 8460000   0.10315068 
 8470000  0.099785996 
 8480000  0.089699748 
 8490000  0.096928235 
 8500000  0.098932677 
 8510000  0.098637271 
 8520000   0.10444609 
 8530000   0.10915793 
 8540000  0.099405606 
 8550000    0.1021667 
 8560000  0.094943651 
 8570000   0.10406483 
 8580000  0.094152546 
 8590000   0.10624543 
 8600000  0.099327675 
 8610000    0.1070093 
 8620000  0.094333514 
 8630000   0.10668058 
 8640000   0.10025673 
 8650000  0.094737803 
 8660000  0.095554541 
 8670000   0.10604371 
 8680000   0.10234817 
 8690000    0.1034958 
 8700000  0.093944537 
 8710000  0.093319446 
 8720000  0.099603715 
 8730000   0.10703219 
 8740000  0.096578731 
 8750000   0.10389256 
 8760000   0.10027947 
 8770000  0.099995335 
 8780000   0.10420255 
 8790000   0.10651104 
 8800000   0.10332183 
 8810000  0.095072424 
 8820000  0.099743587 
 8830000   0.10578843 
 8840000  0.092572687 
 8850000  0.096843088 
 8860000     0.110217 
 8870000   0.10498558 
 8880000   0.10091905 
 8890000   0.10996137 
 8900000   0.10922421 
 8910000   0.10244124 
 8920000   0.10084321 
 8930000  0.098093928 
 8940000  0.099665068 
 8950000   0.10268447 
 8960000  0.090184004 
 8970000   0.11085083 
 8980000   0.08840115 
 8990000   0.10197599 
 9000000   0.10177157 
 9010000   0.10424869 
 9020000  0.098123099 
 9030000  0.095067194 
 9040000   0.10073021 
 9050000   0.10874849 
 9060000   0.11530407 
 9070000  0.099834174 
 9080000  0.095267183 
 9090000  0.092704595 
 9100000    0.1032507 
 9110000   0.10345335 
 9120000    0.1078492 
 9130000   0.10202117 
 9140000   0.10815972 
 9150000   0.10244788 
 9160000  0.093674714 
 9170000   0.11041892 
 9180000  0.094841326 
 9190000  0.097404665 
 9200000   0.10021465 
 9210000   0.10806365 
 9220000   0.10907751 
 9230000   0.10582736 
 9240000    0.1009857 
 9250000  0.098834818 
 9260000   0.10081005 
 9270000   0.10417265 
 9280000  0.093936016 
 9290000   0.10690129 
 9300000   0.10789839 
 9310000   0.10351562 
 9320000  0.096245963 
 9330000  0.090334544 
 9340000   0.11175893 
 9350000  0.099166536 
 9360000   0.10332015 
 9370000   0.11521041 
 9380000   0.10608275 
 9390000  0.097982704 
 9400000   0.10036934 
 9410000  0.096234078 
 9420000   0.10430555 
 9430000   0.10226468 
 9440000   0.10475145 
 9450000   0.10710189 
 9460000  0.099295466 
 9470000   0.10159143 
 9480000  0.099571241 
 9490000    0.1110737 
 9500000  0.096666672 
 9510000  0.097099171 
 9520000  0.098913374 
 9530000  0.096359398 
 9540000  0.096513709 
 9550000  0.097629857 
 9560000  0.096832074 
 9570000   0.10159311 
 9580000  0.099358679 
 9590000   0.10764555 
 9600000   0.10789686 
 9610000  0.095909693 
 9620000  0.097901798 
 9630000  0.089908444 
 9640000   0.10209565 
 9650000   0.10293645 
 9660000   0.10240817 
 9670000  0.093211757 
 9680000  0.092588519 
 9690000  0.094668758 
 9700000    0.0957095 
 9710000   0.10589378 
 9720000  0.094628098 
 9730000    0.1031188 
 9740000   0.09936797 
 9750000  0.092326611 
 9760000  0.096854514 
 9770000  0.095417386 
 9780000  0.093758313 
 9790000   0.10956351 
 9800000  0.097702848 
 9810000  0.098894909 
 9820000  0.093811085 
 9830000   0.10309117 
 9840000   0.10048772 
 9850000  0.097687769 
 9860000  0.099437471 
 9870000  0.093393841 
 9880000   0.09422917 
 9890000   0.09679215 
 9900000   0.10473616 
 9910000   0.10455349 
 9920000  0.095713102 
 9930000   0.10032815 
 9940000   0.10058356 
 9950000   0.10278475 
 9960000  0.097629098 
 9970000  0.097547981 
 9980000  0.092007105 
 9990000  0.096809286 
10000000  0.097021562 
10010000   0.11079759 
10020000   0.10135575 
10030000   0.10254958 
10040000  0.088642735 
10050000   0.11002345 
10060000  0.093352917 
10070000  0.093118887 
10080000  0.098875563 
10090000   0.10283079 
10100000   0.10068032 
10110000  0.098924408 
10120000  0.087858041 
10130000    0.1029257 
10140000       0.1036 
10150000  0.097839876 
10160000   0.10713099 
10170000   0.10284425 
10180000   0.11008375 
10190000   0.10608169 
10200000  0.099852489 
10210000   0.10463852 
10220000   0.10223287 
10230000   0.10354834 
10240000   0.10507192 
10250000   0.10927192 
10260000   0.10807118 
10270000  0.089569744 
10280000  0.094244546 
10290000   0.10431252 
10300000  0.097501046 
10310000    0.0995654 
10320000   0.10667963 
10330000  0.091107707 
10340000    0.1095738 
10350000  0.098257892 
10360000  0.095897711 
10370000   0.10131055 
10380000  0.099329847 
10390000  0.092890755 
10400000  0.098967187 
10410000   0.10409494 
10420000   0.10935386 
10430000  0.097615705 
10440000   0.10475372 
10450000   0.10431142 
10460000   0.10183583 
10470000   0.10127475 
10480000   0.10360012 
10490000  0.098337294 
10500000  0.098151115 
10510000   0.10290432 
10520000   0.10832586 
10530000  0.099944625 
10540000    0.1055367 
10550000   0.11013797 
10560000  0.095754267 
10570000  0.086469041 
10580000  0.099918187 
10590000   0.10756473 
10600000   0.10836422 
10610000  0.094074279 
10620000   0.10681997 
10630000  0.098952127 
10640000   0.10035014 
10650000  0.092191406 
10660000   0.10273337 
10670000  0.092444093 
10680000   0.10783263 
10690000   0.10685306 
10700000   0.10840755 
10710000  0.094366815 
10720000  0.093759476 
10730000  0.094076674 
10740000   0.10897073 
10750000   0.10045786 
10760000   0.09896915 
10770000   0.10812801 
10780000   0.11155726 
10790000   0.10427109 
10800000  0.085270618 
10810000   0.11665306 
10820000  0.096184615 
10830000  0.097072374 
10840000    0.1017286 
10850000  0.093349451 
10860000  0.093294909 
10870000   0.10432031 
10880000   0.09379925 
10890000  0.094807768 
10900000  0.098691883 
10910000  0.099268765 
10920000    0.1053916 
10930000  0.093276051 
10940000  0.095188529 
10950000   0.10745759 
10960000   0.10875714 
10970000   0.10685872 
10980000  0.088453676 
10990000  0.093126732 
11000000  0.096847293 
11010000   0.11695107 
11020000  0.096545878 
11030000   0.10262133 
11040000   0.11518799 
11050000    0.1006808 
11060000   0.10013583 
11070000  0.098383447 
11080000   0.10567608 
11090000   0.10098055 
11100000  0.097403666 
11110000  0.092037085 
11120000  0.090536448 
11130000   0.10351686 
11140000   0.10136607 
11150000   0.10548979 
11160000   0.10235617 
11170000  0.094787023 
11180000  0.094453209 
11190000   0.10772949 
11200000   0.10693801 
11210000    0.1002095 
11220000   0.10833515 
11230000   0.10602536 
11240000   0.10815597 
11250000  0.097935702 
11260000   0.10367477 
11270000   0.10190555 
11280000   0.10576471 
11290000    0.1016063 
11300000   0.10430976 
11310000  0.099305453 
11320000  0.094911488 
11330000  0.093497516 
11340000  0.099181124 
11350000  0.099984968 
11360000   0.11250078 
11370000  0.089978092 
11380000  0.098710181 
11390000   0.10287617 
11400000   0.10001235 
11410000   0.10605456 
11420000   0.10079726 
11430000   0.10614294 
11440000   0.10601247 
11450000   0.10255924 
11460000   0.10454984 
11470000  0.097943726 
11480000   0.10580067 
11490000    0.1133064 
11500000  0.099845042 
11510000   0.11313387 
11520000   0.10391084 
11530000   0.10196452 
11540000   0.10192191 
11550000   0.10857265 
11560000   0.10951341 
11570000  0.091852252 
11580000  0.098697046 
11590000   0.10309177 
11600000   0.10526163 
11610000   0.10619659 
11620000   0.11300755 
11630000   0.09858317 
11640000   0.10381337 
11650000   0.11415645 
11660000  0.091666171 
11670000   0.10077869 
11680000   0.10344252 
11690000   0.10410496 
11700000  0.092845571 
11710000   0.10122967 
11720000  0.083623318 
11730000   0.10015251 
11740000   0.10486619 
11750000   0.11413509 
11760000  0.097975201 
11770000   0.10409818 
11780000  0.097810407 
11790000    0.1018218 
11800000   0.10606126 
11810000   0.10962818 
11820000  0.098150073 
11830000   0.10945253 
11840000  0.096652436 
11850000    0.1102896 
11860000   0.11094064 
11870000   0.10006164 
11880000  0.098709502 
11890000   0.09396917 
11900000  0.092012334 
11910000   0.11023765 
11920000   0.10255692 
11930000  0.093347777 
11940000   0.11207945 
11950000   0.10153841 
11960000  0.099854701 
11970000  0.088461024 
11980000  0.097812934 
11990000  0.098628241 
12000000   0.10582573 
12010000   0.10406369 
12020000  0.097624818 
12030000   0.10229664 
12040000   0.10656459 
12050000   0.10553922 
12060000  0.098718338 
12070000  0.094534257 
12080000   0.10453865 
12090000   0.10402529 
12100000    0.1052105 
12110000   0.10145883 
12120000  0.097955699 
12130000   0.10916583 
12140000   0.11130743 
12150000    0.1009589 
12160000   0.10863041 
12170000  0.091953968 
12180000   0.09611462 
12190000    0.0917395 
12200000   0.10908119 
12210000  0.096478961 
12220000  0.087227444 
12230000  0.093756966 
12240000  0.093604724 
12250000   0.10554829 
12260000  0.095312247 
12270000  0.097525022 
12280000  0.096003045 
12290000  0.093200673 
12300000   0.10105259 
12310000   0.10824169 
12320000  0.089936263 
12330000  0.093978449 
12340000   0.10228716 
12350000  0.098302751 
12360000   0.10184763 
12370000    0.1071778 
12380000  0.095080735 
12390000   0.10532322 
12400000   0.10214082 
12410000  0.099865878 
12420000   0.10330688 
12430000   0.10308932 
12440000  0.094392715 
12450000   0.09637697 
12460000  0.099767139 
12470000  0.084610089 
12480000   0.10845279 
12490000   0.10318097 
12500000   0.09946412 
12510000  0.099462708 
12520000  0.097983951 
12530000    0.1044743 
12540000   0.10147546 
12550000  0.092773087 
12560000   0.10618444 
12570000  0.097936174 
12580000   0.10994131 
12590000   0.10003569 
12600000  0.095873629 
12610000   0.10321291 
12620000    0.1036264 
12630000   0.10095446 
12640000    0.1003312 
12650000  0.092022137 
12660000   0.10064266 
12670000   0.09480611 
12680000  0.096162357 
12690000  0.096190607 
12700000  0.097210489 
12710000   0.09348095 
12720000  0.095466828 
12730000  0.095872359 
12740000  0.096347778 
12750000  0.093446787 
12760000   0.11256566 
12770000   0.09370034 
12780000  0.097545339 
12790000   0.09418475 
12800000   0.10275173 
12810000   0.10016596 
12820000  0.090326075 
12830000    0.1012579 
12840000  0.097652262 
12850000  0.099082124 
12860000  0.096347464 
12870000  0.099471012 
12880000   0.10280454 
12890000  0.098163296 
12900000   0.10474597 
12910000  0.093371059 
12920000   0.10605326 
12930000   0.10347559 
12940000   0.10353012 
12950000   0.10544465 
12960000   0.09667158 
12970000   0.10545495 
12980000   0.10158858 
12990000  0.097512125 
13000000   0.10568988 
13010000   0.10267968 
13020000  0.092070635 
13030000   0.10908697 
13040000   0.10865406 
13050000     0.102867 
13060000  0.098576058 
13070000   0.10123225 
13080000  0.092568847 
13090000  0.099734089 
13100000   0.10169566 
13110000  0.094012096 
13120000   0.10334861 
13130000  0.087575056 
13140000   0.11061232 
13150000  0.095350424 
13160000  0.099549339 
13170000   0.10019112 
13180000  0.097864936 
13190000    0.1067508 
13200000  0.098636296 
13210000  0.093296171 
13220000  0.093711997 
13230000  0.097474689 
13240000   0.10071116 
13250000  0.096903431 
13260000  0.091917291 
13270000   0.10856906 
13280000   0.10141829 
13290000    0.1023529 
13300000   0.10531177 
13310000  0.098314775 
13320000    0.1052329 
13330000   0.10061514 
13340000  0.093339888 
13350000   0.10613363 
13360000   0.09292746 
13370000   0.10257744 
13380000  0.094134125 
13390000  0.098958996 
13400000   0.10049892 
13410000   0.10326558 
13420000   0.10266745 
13430000  0.099292695 
13440000   0.10315071 
13450000  0.093446612 
13460000  0.088728226 
13470000  0.097581102 
13480000   0.11470924 
13490000  0.094884115 
13500000  0.095778115 
13510000   0.11781226 
13520000  0.095875214 
13530000  0.096491857 
13540000   0.10175015 
13550000   0.10795751 
13560000  0.098344269 
13570000   0.09914736 
13580000  0.098224161 
13590000  0.098841484 
13600000  0.094794845 
13610000  0.095850736 
13620000   0.10539811 
13630000   0.11134141 
13640000   0.10266003 
13650000   0.10077617 
13660000   0.10523424 
13670000  0.097366426 
13680000  0.093224801 
13690000  0.093041642 
13700000  0.099014691 
13710000   0.10593896 
13720000  0.098364871 
13730000  0.093837618 
13740000   0.10998178 
13750000   0.10755989 
13760000  0.087471735 
13770000   0.10301429 
13780000  0.098666184 
13790000   0.10514776 
13800000   0.10173055 
13810000   0.10314064 
13820000   0.09758204 
13830000  0.096520154 
13840000   0.11110898 
13850000   0.10006072 
13860000   0.10272159 
13870000   0.10155583 
13880000  0.098093999 
13890000   0.10098424 
13900000   0.10192439 
13910000  0.092950502 
13920000  0.094889804 
13930000   0.10530502 
13940000   0.10522126 
13950000   0.10144854 
13960000   0.10617842 
13970000   0.09170105 
13980000   0.10682596 
13990000   0.11431675 
14000000   0.10317509 
14010000   0.10368754 
14020000   0.10002201 
14030000   0.10273107 
14040000   0.10689707 
14050000   0.11222667 
14060000   0.10206412 
14070000  0.093520104 
14080000    0.1125527 
14090000  0.098431078 
14100000   0.10033732 
14110000  0.096752232 
14120000   0.10058592 
14130000  0.096518658 
14140000   0.10823447 
14150000   0.10798723 
14160000   0.10835522 
14170000  0.094558355 
14180000    0.1036482 
14190000   0.10452911 
14200000   0.10708363 
14210000   0.10539669 
14220000  0.096548922 
14230000   0.10150723 
14240000   0.10543491 
14250000   0.10739291 
14260000   0.10722023 
14270000   0.11025343 
14280000  0.090442018 
14290000  0.094345021 
14300000  0.095319758 
14310000   0.11121021 
14320000   0.10117701 
14330000  0.093246513 
14340000  0.093450114 
14350000  0.095755629 
14360000   0.10487163 
14370000   0.10053311 
14380000   0.11187337 
14390000   0.10108196 
14400000   0.10099438 
14410000   0.10915335 
14420000   0.10647803 
14430000   0.10432697 
14440000  0.096492263 
14450000   0.10784993 
14460000  0.096536168 
14470000   0.10008809 
14480000  0.098148719 
14490000    0.1088887 
14500000   0.10460925 
14510000   0.10182981 
14520000  0.096489582 
14530000     0.100773 
14540000   0.10281747 
14550000  0.094012261 
14560000   0.10451274 
14570000  0.095727254 
14580000   0.10017279 
14590000   0.10043829 
14600000   0.10372387 
14610000  0.096426957 
14620000  0.096589653 
14630000   0.10099165 
14640000  0.095292918 
14650000   0.10961396 
14660000  0.096634193 
14670000   0.10245701 
14680000  0.097918328 
14690000  0.098501347 
14700000   0.10271921 
14710000   0.10441101 
14720000  0.093566149 
14730000  0.098699649 
14740000  0.097658856 
14750000   0.10482859 
14760000    0.1043107 
14770000   0.10623639 
14780000   0.10868667 
14790000    0.1156643 
14800000  0.098101188 
14810000   0.10543715 
14820000  0.090506691 
14830000  0.099136368 
14840000   0.11195555 
14850000    0.1081292 
14860000   0.10088734 
14870000   0.10933291 
14880000   0.11379569 
14890000   0.10390853 
14900000  0.098869521 
14910000   0.10542564 
14920000  0.095641815 
14930000   0.10563747 
14940000  0.094649959 
14950000  0.093594769 
14960000  0.089260139 
14970000   0.11278958 
14980000   0.10490308 
14990000   0.10287179 
15000000  0.095789457 
15010000   0.10467036 
15020000   0.10035444 
15030000  0.099316765 
15040000    0.0986815 
15050000   0.10683322 
15060000  0.091602241 
15070000   0.10395447 
15080000   0.10331162 
15090000   0.10628778 
15100000     0.104354 
15110000   0.10989359 
15120000   0.10098718 
15130000  0.095345348 
15140000  0.095605226 
15150000   0.10170156 
15160000  0.092247928 
15170000   0.10854598 
15180000   0.10291058 
15190000   0.11668847 
15200000  0.096171632 
15210000    0.0961234 
15220000  0.093531359 
15230000   0.10200868 
15240000   0.10633678 
15250000   0.10136246 
15260000   0.11052527 
15270000   0.11428686 
15280000  0.098751705 
15290000   0.11265068 
15300000   0.10142274 
15310000  0.099751354 
15320000  0.095161123 
15330000  0.099955473 
15340000    0.1056582 
15350000  0.098646235 
15360000  0.095863842 
15370000   0.10128172 
15380000   0.10722959 
15390000   0.11341594 
15400000  0.097360761 
15410000    0.1008799 
15420000   0.09597254 
15430000  0.098854096 
15440000   0.10194153 
15450000   0.10114193 
15460000   0.10342749 
15470000   0.10393093 
15480000  0.090787025 
15490000   0.10588886 
15500000  0.097789566 
15510000   0.10152547 
15520000   0.10364977 
15530000   0.09821014 
15540000  0.098921728 
15550000  0.095662666 
15560000  0.097432416 
15570000   0.10618024 
15580000  0.095757647 
15590000   0.10967915 
15600000   0.10895776 
15610000   0.10016113 
15620000  0.097770288 
15630000   0.10197125 
15640000  0.094330221 
15650000  0.097646141 
15660000   0.11251197 
15670000   0.10184979 
15680000   0.10214932 
15690000  0.097284172 
15700000  0.092754349 
15710000   0.10094261 
15720000  0.097391192 
15730000    0.1046073 
15740000  0.090626812 
15750000  0.091617792 
15760000   0.10018917 
15770000  0.096794205 
15780000  0.098787714 
15790000  0.091267398 
15800000  0.099989345 
15810000  0.093521849 
15820000   0.10039725 
15830000  0.093841345 
15840000   0.10966861 
15850000    0.1079858 
15860000   0.10335933 
15870000  0.097969933 
15880000  0.091080293 
15890000  0.087105472 
15900000    0.0932756 
15910000   0.10369479 
15920000   0.10326635 
15930000   0.10357498 
15940000   0.10258473 
15950000   0.10762668 
15960000   0.10627815 
15970000    0.1000821 
15980000  0.098886055 
15990000  0.087359255 
16000000  0.094514504 
16010000   0.10283873 
16020000  0.095367542 
16030000   0.11236422 
16040000  0.088398398 
16050000   0.10467297 
16060000   0.11023209 
16070000   0.10332948 
16080000  0.098995424 
16090000  0.099085514 
16100000   0.10154128 
16110000   0.10712786 
16120000  0.092975462 
16130000  0.099923451 
16140000   0.10177822 
16150000  0.093632857 
16160000   0.11163139 
16170000   0.10090373 
16180000   0.10381513 
16190000  0.096087965 
16200000  0.098140725 
16210000   0.10892742 
16220000   0.10811574 
16230000  0.094607759 
16240000  0.097279116 
16250000   0.10155474 
16260000   0.10035291 
16270000  0.095865582 
16280000   0.10121894 
16290000  0.096450657 
16300000   0.09919125 
16310000   0.10283858 
16320000   0.11180337 
16330000   0.10236444 
16340000  0.098273617 
16350000   0.10371555 
16360000   0.10223573 
16370000   0.10811113 
16380000  0.099311515 
16390000  0.098257933 
16400000   0.10085805 
16410000     0.104531 
16420000  0.099271629 
16430000  0.099235064 
16440000  0.096695044 
16450000   0.10517169 
16460000   0.09527836 
16470000  0.097847708 
16480000  0.095166301 
16490000   0.11212679 
16500000   0.10052119 
16510000  0.096419839 
16520000   0.10083325 
16530000  0.097926309 
16540000   0.09292842 
16550000   0.09504511 
16560000   0.10236417 
16570000   0.10051768 
16580000   0.10514422 
16590000   0.10022766 
16600000   0.10058602 
16610000  0.095535416 
16620000  0.099389301 
16630000  0.097404339 
16640000  0.098186828 
16650000   0.10388555 
16660000   0.10328111 
16670000   0.10171969 
16680000   0.10295647 
16690000   0.11454061 
16700000   0.11000401 
16710000   0.10417826 
16720000  0.098081036 
16730000  0.095633566 
16740000  0.089831444 
16750000   0.08879783 
16760000   0.10105888 
16770000   0.10255412 
16780000   0.10387706 
16790000   0.10043007 
16800000   0.10933662 
16810000  0.090683458 
16820000   0.10255323 
16830000   0.10378775 
16840000   0.09610193 
16850000  0.092547574 
16860000   0.11173903 
16870000  0.099884507 
16880000  0.085704455 
16890000    0.1049081 
16900000  0.094563835 
16910000   0.10317592 
16920000  0.093998133 
16930000  0.099652572 
16940000   0.10460221 
16950000   0.10328741 
16960000  0.090532711 
16970000  0.097345347 
16980000   0.10813996 
16990000   0.10017212 
17000000  0.094119663 
17010000   0.10765258 
17020000  0.091770626 
17030000  0.083926473 
17040000  0.090198203 
17050000   0.10265471 
17060000   0.10059286 
17070000   0.10966578 
17080000   0.10526249 
17090000   0.10377888 
17100000  0.096624023 
17110000   0.09767581 
17120000   0.10460822 
17130000   0.10629803 
17140000   0.10610409 
17150000   0.10086816 
17160000   0.10103858 
17170000  0.098300556 
17180000    0.1111142 
17190000   0.10484188 
17200000   0.10165228 
17210000   0.10081715 
17220000  0.093437269 
17230000  0.097581933 
17240000   0.10269836 
17250000  0.094625968 
17260000   0.10838845 
17270000   0.10702817 
17280000   0.10284746 
17290000  0.095176483 
17300000  0.093981794 
17310000  0.096702457 
17320000  0.091191946 
17330000  0.094503181 
17340000  0.098124989 
17350000   0.10489801 
17360000  0.099555035 
17370000   0.10082168 
17380000  0.094691152 
17390000    0.1083293 
17400000  0.095999452 
17410000  0.094988198 
17420000   0.11436749 
17430000   0.10369145 
17440000  0.099843864 
17450000  0.090902191 
17460000   0.10453295 
17470000   0.10364146 
17480000   0.10956741 
17490000  0.098139879 
17500000  0.094800162 
17510000   0.11723558 
17520000  0.095604996 
17530000  0.095014955 
17540000   0.10566904 
17550000   0.10277403 
17560000   0.10948798 
17570000  0.099045947 
17580000   0.09888764 
17590000   0.10112848 
17600000   0.09905931 
17610000  0.096829842 
17620000    0.1041705 
17630000  0.099932958 
17640000  0.091355091 
17650000   0.10578417 
17660000   0.11469216 
17670000   0.10080708 
17680000   0.10486685 
17690000  0.099302482 
17700000   0.10514111 
17710000   0.10472075 
17720000   0.10161897 
17730000  0.098835922 
17740000   0.10616794 
17750000  0.095192353 
17760000   0.10414298 
17770000   0.10816794 
17780000   0.10795542 
17790000   0.10793299 
17800000   0.10056428 
17810000    0.1047756 
17820000   0.10094779 
17830000   0.10088895 
17840000  0.095439263 
17850000   0.11036738 
17860000    0.1026907 
17870000   0.10652931 
17880000  0.098281627 
17890000  0.095200466 
17900000  0.097763821 
17910000   0.09021379 
17920000    0.1017543 
17930000   0.10301359 
17940000   0.10744687 
17950000  0.091359695 
17960000   0.10221646 
17970000  0.086924093 
17980000   0.10275868 
17990000  0.087231607 
18000000   0.10199081 
18010000   0.10779147 
18020000  0.093278924 
18030000  0.097652174 
18040000   0.10395509 
18050000  0.096194456 
18060000   0.10529017 
18070000   0.10126241 
18080000  0.097565335 
18090000   0.11024263 
18100000   0.10744942 
18110000   0.10173472 
18120000   0.10184491 
18130000  0.098223857 
18140000   0.10265832 
18150000  0.095750033 
18160000  0.091513718 
18170000   0.10304431 
18180000  0.098299624 
18190000  0.091527341 
18200000   0.10032901 
18210000   0.10010442 
18220000   0.10384795 
18230000   0.10540824 
18240000   0.10160919 
18250000    0.1053528 
18260000  0.094671962 
18270000   0.10937546 
18280000  0.095441677 
18290000   0.10133409 
18300000  0.092442405 
18310000  0.099147443 
18320000  0.091443928 
18330000  0.095595642 
18340000  0.098729034 
18350000  0.090176262 
18360000   0.11488995 
18370000    0.1034489 
18380000   0.10124007 
18390000  0.093833213 
18400000  0.097672138 
18410000     0.113266 
18420000   0.10397469 
18430000  0.094274839 
18440000  0.097760066 
18450000   0.10027146 
18460000   0.10171996 
18470000  0.097747904 
18480000   0.09973038 
18490000  0.098016394 
18500000  0.094485497 
18510000   0.10216441 
18520000   0.10046648 
18530000   0.10134625 
18540000   0.10103982 
18550000   0.09301461 
18560000    0.1009801 
18570000  0.099922132 
18580000  0.090482912 
18590000   0.10397414 
18600000  0.097687227 
18610000   0.10456673 
18620000  0.098148088 
18630000  0.097267214 
18640000   0.10010718 
18650000  0.098715458 
18660000   0.10019188 
18670000  0.094214849 
18680000   0.10300089 
18690000   0.10586945 
18700000  0.099255207 
18710000   0.10704412 
18720000   0.11467075 
18730000    0.1079524 
18740000  0.098472786 
18750000  0.099390147 
18760000  0.094325524 
18770000  0.093809591 
18780000  0.099986348 
18790000   0.10758014 
18800000  0.097240005 
18810000  0.096128272 
18820000  0.094912543 
18830000   0.10055562 
18840000   0.09405148 
18850000   0.10987407 
18860000   0.12220881 
18870000   0.10771454 
18880000   0.10818171 
18890000  0.099058319 
18900000   0.10245787 
18910000  0.095376047 
18920000   0.10131501 
18930000  0.098928413 
18940000  0.098426955 
18950000   0.10558408 
18960000   0.10352313 
18970000   0.10228223 
18980000   0.10525225 
18990000  0.095241588 
19000000   0.10208892 
19010000   0.10969798 
19020000  0.094554292 
19030000   0.10052061 
19040000  0.093609078 
19050000   0.10164109 
19060000  0.095659525 
19070000   0.10415006 
19080000    0.1083257 
19090000   0.09923476 
19100000  0.098133493 
19110000   0.10672115 
19120000  0.098969217 
19130000   0.10307333 
19140000  0.096517384 
19150000   0.10523056 
19160000   0.09341371 
19170000   0.11013786 
19180000    0.1026596 
19190000  0.097627184 
19200000  0.095852897 
19210000   0.10547977 
19220000  0.088382983 
19230000    0.1033534 
19240000  0.089284689 
19250000   0.11021536 
19260000    0.1021466 
19270000   0.10348818 
19280000    0.1069436 
19290000  0.090138164 
19300000   0.10368802 
19310000   0.11155578 
19320000   0.09370967 
19330000   0.10644122 
19340000  0.098346047 
19350000  0.095889537 
19360000   0.09698639 
19370000  0.093855437 
19380000  0.094734988 
19390000  0.098261101 
19400000   0.09982372 
19410000   0.10345065 
19420000  0.096571291 
19430000   0.09990558 
19440000   0.10103201 
19450000   0.11037078 
19460000   0.10065239 
19470000   0.10845621 
19480000  0.086605756 
19490000  0.094004645 
19500000   0.10126282 
19510000  0.092591568 
19520000  0.091528136 
19530000  0.097461925 
19540000  0.098219795 
19550000   0.10164699 
19560000    0.1067944 
19570000   0.10957701 
19580000  0.092986012 
19590000   0.10572038 
19600000   0.10489635 
19610000   0.09670342 
19620000    0.1044989 
19630000  0.085870362 
19640000   0.10019552 
19650000  0.096387535 
19660000  0.098873981 
19670000  0.096596005 
19680000   0.10956285 
19690000    0.1046121 
19700000  0.097896053 
19710000  0.095731112 
19720000  0.087592667 
19730000   0.09229746 
19740000   0.10116349 
19750000   0.09963078 
19760000  0.087580836 
19770000  0.095605738 
19780000  0.098290358 
19790000  0.098101899 
19800000  0.099191489 
19810000   0.10214326 
19820000  0.099081998 
19830000   0.10201795 
19840000   0.10359668 
19850000   0.10148325 
19860000   0.10017666 
19870000   0.10424834 
19880000  0.090764416 
19890000   0.09372787 
19900000  0.093252859 
19910000  0.098908712 
19920000  0.093655338 
19930000   0.10278099 
19940000  0.096539667 
19950000  0.092863626 
19960000   0.10288242 
19970000   0.10168009 
19980000    0.1028687 
19990000  0.099736976 
20000000  0.092590605 
20010000    0.1000794 
20020000    0.1116944 
20030000   0.10819748 
20040000  0.094271083 
20050000   0.11242342 
20060000   0.10032685 
20070000   0.10337756 
20080000  0.088123132 
20090000   0.10591772 
20100000   0.09422103 
20110000   0.10476028 
20120000  0.099653126 
20130000   0.10259407 
20140000    0.1000005 
20150000   0.10020927 
20160000   0.10079825 
20170000  0.087045404 
20180000  0.097339167 
20190000   0.10708983 
20200000   0.10685567 
20210000  0.093780799 
20220000    0.1028274 
20230000   0.10082075 
20240000   0.09893984 
20250000  0.089285083 
20260000   0.09994803 
20270000   0.10814937 
20280000  0.092935685 
20290000   0.10004666 
20300000   0.09332691 
20310000   0.10852759 
20320000    0.0992715 
20330000   0.10054817 
20340000  0.097619853 
20350000  0.097977157 
20360000   0.09067568 
20370000   0.10119475 
20380000  0.093557098 
20390000   0.10015901 
20400000  0.096196239 
20410000  0.097156018 
20420000  0.092629899 
20430000   0.10457958 
20440000   0.10197086 
20450000  0.098295677 
20460000  0.097925907 
20470000   0.09348363 
20480000   0.09302974 
20490000   0.10228333 
20500000  0.094943093 
20510000  0.097233931 
20520000    0.0912749 
20530000   0.10366873 
20540000  0.099681196 
20550000   0.10610158 
20560000   0.10161205 
20570000  0.099491592 
20580000  0.099969582 
20590000  0.096380941 
20600000   0.10345059 
20610000  0.095901404 
20620000  0.099973064 
20630000   0.10031946 
20640000   0.10792687 
20650000  0.092425586 
20660000   0.09714036 
20670000  0.095690181 
20680000   0.09786278 
20690000  0.099748321 
20700000   0.10273881 
20710000   0.10342089 
20720000  0.097664139 
20730000   0.10220906 
20740000   0.10363337 
20750000  0.097382334 
20760000   0.10136705 
20770000  0.086112137 
20780000   0.09800335 
20790000  0.098817976 
20800000  0.099481821 
20810000   0.11269908 
20820000  0.092769462 
20830000  0.097744737 
20840000  0.098612489 
20850000  0.096405994 
20860000  0.097389955 
20870000   0.10091248 
20880000  0.097911711 
20890000   0.10073549 
20900000  0.098560238 
20910000   0.10125024 
20920000   0.10038844 
20930000   0.10250628 
20940000  0.096949916 
20950000  0.084667649 
20960000   0.09674447 
20970000  0.098245403 
20980000  0.099977277 
20990000  0.096842661 
21000000   0.08586498 
21010000  0.098819919 
21020000   0.10045512 
21030000   0.11049333 
21040000   0.10273667 
21050000    0.1000155 
21060000     0.101053 
21070000  0.099228728 
21080000  0.097422868 
21090000  0.099267681 
21100000   0.10149752 
21110000  0.099835106 
21120000   0.10083196 
21130000  0.096002676 
21140000  0.090132099 
21150000   0.10188375 
21160000   0.10286594 
21170000   0.10526898 
21180000    0.0994176 
21190000   0.10778279 
21200000   0.10478829 
21210000   0.10118184 
21220000  0.097560821 
21230000   0.10650891 
21240000  0.099344943 
21250000   0.10826406 
21260000  0.099067606 
21270000  0.096902403 
21280000  0.098007781 
21290000   0.10134501 
21300000   0.10435326 
21310000   0.10144468 
21320000  0.097778255 
21330000   0.10462536 
21340000  0.095590869 
21350000   0.10323436 
21360000  0.094285866 
21370000   0.10297869 
21380000   0.10022503 
21390000   0.10160894 
21400000  0.099134611 
21410000  0.093699754 
21420000   0.09509817 
21430000   0.10100638 
21440000  0.093773283 
21450000  0.093235064 
21460000  0.098469979 
21470000   0.10539763 
21480000   0.10060945 
21490000  0.098676786 
21500000   0.10922079 
21510000  0.098812436 
21520000  0.095950315 
21530000  0.092338537 
21540000  0.087397377 
21550000   0.11217785 
21560000   0.09759519 
21570000  0.098103308 
21580000  0.092121768 
21590000  0.099521642 
21600000  0.092941171 
21610000   0.10201167 
21620000   0.10705062 
21630000  0.096873632 
21640000   0.10677662 
21650000  0.098721635 
21660000    0.1063675 
21670000  0.096550447 
21680000   0.10053624 
21690000   0.10017878 
21700000   0.10664042 
21710000   0.10434608 
21720000   0.10264186 
21730000   0.10786214 
21740000  0.097625967 
21750000  0.087544205 
21760000   0.10091213 
21770000   0.10172444 
21780000   0.10178977 
21790000  0.098073939 
21800000   0.10642253 
21810000   0.09561521 
21820000  0.095987111 
21830000   0.10812528 
21840000   0.10203939 
21850000  0.089702396 
21860000   0.10581627 
21870000   0.10341913 
21880000   0.10018901 
21890000  0.093965131 
21900000   0.10521773 
21910000  0.098770845 
21920000   0.10069647 
21930000  0.085883267 
21940000   0.10017994 
21950000  0.095081952 
21960000   0.10219099 
21970000   0.10208649 
21980000   0.10636964 
21990000   0.10655613 
22000000   0.10828943 
22010000  0.085776565 
22020000   0.10940734 
22030000  0.097345834 
22040000  0.095628172 
22050000   0.10574773 
22060000  0.097900361 
22070000   0.09879703 
22080000   0.10058034 
22090000   0.10511679 
22100000  0.095154154 
22110000  0.096175907 
22120000   0.10554553 
22130000  0.096705734 
22140000  0.095992592 
22150000    0.0978965 
22160000  0.095886038 
22170000  0.091402709 
22180000   0.10460777 
22190000  0.083845956 
22200000   0.09336213 
22210000   0.11081243 
22220000  0.097167345 
22230000   0.10682826 
22240000    0.1077345 
22250000  0.097322289 
22260000   0.10762852 
22270000  0.090375309 
22280000  0.099055255 
22290000  0.092009168 
22300000   0.10143592 
22310000   0.10053713 
22320000  0.097730128 
22330000  0.092096927 
22340000  0.096370713 
22350000  0.096377366 
22360000   0.10304054 
22370000   0.11890991 
22380000   0.10776166 
22390000  0.093319995 
22400000    0.1162869 
22410000  0.097253791 
22420000    0.1023444 
22430000   0.10025716 
22440000   0.11045335 
22450000   0.11880279 
22460000  0.098489478 
22470000    0.1053999 
22480000  0.094914816 
22490000    0.1015223 
22500000   0.09448863 
22510000   0.10160487 
22520000  0.092706735 
22530000   0.11316474 
22540000   0.10075241 
22550000  0.093420415 
22560000   0.10035155 
22570000  0.099387538 
22580000   0.10197257 
22590000   0.11240899 
22600000  0.096034686 
22610000  0.098526455 
22620000  0.098434627 
22630000    0.1102686 
22640000   0.11107472 
22650000   0.10154729 
22660000   0.10953256 
22670000   0.10576247 
22680000  0.098092604 
22690000   0.10070121 
22700000   0.10383043 
22710000  0.095552452 
22720000   0.10391142 
22730000   0.09136923 
22740000  0.095462222 
22750000   0.10349797 
22760000   0.11130055 
22770000  0.096061721 
22780000  0.096526005 
22790000  0.096037374 
22800000   0.10456128 
22810000  0.097859773 
22820000    0.1023068 
22830000   0.10491522 
22840000   0.10373488 
22850000   0.10327748 
22860000   0.10407579 
22870000   0.10326835 
22880000    0.1025778 
22890000  0.096811596 
22900000   0.10517156 
22910000   0.10288838 
22920000   0.11248732 
22930000  0.083753786 
22940000   0.10128852 
22950000  0.097636478 
22960000    0.1015151 
22970000   0.11581143 
22980000  0.093103918 
22990000   0.10781831 
23000000  0.097730674 
23010000  0.093611649 
23020000   0.10249785 
23030000   0.10278446 
23040000    0.1074346 
23050000   0.10267635 
23060000  0.098479626 
23070000  0.089430906 
23080000   0.10346436 
23090000  0.099783314 
23100000   0.09788273 
23110000  0.098006264 
23120000   0.10676337 
23130000   0.09451176 
23140000   0.10612481 
23150000  0.091281899 
23160000   0.10292325 
23170000   0.10687197 
23180000   0.10339508 
23190000  0.093183919 
23200000   0.10665105 
23210000   0.10322973 
23220000   0.10692651 
23230000  0.093593822 
23240000   0.10319011 
23250000  0.096286585 
23260000   0.10442949 
23270000   0.10068508 
23280000  0.098832639 
23290000   0.10389519 
23300000  0.091207276 
23310000  0.094525315 
23320000   0.09563008 
23330000   0.10920235 
23340000   0.09464872 
23350000  0.095602625 
23360000   0.11387325 
23370000  0.093281089 
23380000  0.093692194 
23390000  0.099341264 
23400000  0.093167693 
23410000   0.10687052 
23420000   0.10481149 
23430000  0.097050523 
23440000  0.093995408 
23450000   0.10167802 
23460000   0.10113508 
23470000   0.10804759 
23480000   0.10103228 
23490000    0.1052677 
23500000   0.10220807 
23510000     0.093985 
23520000   0.10571986 
23530000   0.10470108 
23540000   0.10256078 
23550000   0.09941215 
23560000  0.098157625 
23570000   0.10035698 
23580000  0.090136153 
23590000  0.096335611 
23600000   0.10919805 
23610000  0.099596505 
23620000   0.10399229 
23630000   0.09669772 
23640000   0.10204841 
23650000  0.092966199 
23660000  0.097131232 
23670000     0.109148 
23680000  0.096275208 
23690000    0.1007191 
23700000   0.09856036 
23710000  0.094703304 
23720000  0.099713698 
23730000  0.089119473 
23740000   0.10197588 
23750000  0.093621399 
23760000  0.094604426 
23770000   0.10128558 
23780000  0.098908873 
23790000    0.1025093 
23800000  0.097869277 
23810000   0.10027959 
23820000    0.1047554 
23830000  0.092422481 
23840000   0.10287013 
23850000   0.10396455 
23860000   0.10310891 
23870000   0.10583539 
23880000   0.10578207 
23890000   0.10680706 
23900000   0.10046725 
23910000   0.10086004 
23920000  0.096576485 
23930000   0.10013047 
23940000  0.099878206 
23950000  0.090235468 
23960000  0.092360224 
23970000   0.10013946 
23980000  0.095409977 
23990000  0.096578178 
24000000  0.091509819 
24010000  0.098409738 
24020000  0.097299033 
24030000  0.095366972 
24040000   0.10446301 
24050000    0.1043463 
24060000  0.096701822 
24070000  0.096691509 
24080000   0.11488858 
24090000   0.10453328 
24100000  0.099708556 
24110000   0.10325199 
24120000   0.10282736 
24130000   0.09788413 
24140000  0.097276588 
24150000  0.093411189 
24160000  0.099060786 
24170000   0.11652157 
24180000   0.10130118 
24190000  0.096378025 
24200000     0.100078 
24210000  0.093112251 
24220000   0.11611512 
24230000  0.097428351 
24240000  0.090053582 
24250000    0.1076241 
24260000  0.095590326 
24270000   0.10424692 
24280000   0.10657091 
24290000  0.091889099 
24300000   0.10147763 
24310000  0.096592519 
24320000   0.10613701 
24330000  0.099102405 
24340000  0.098665603 
24350000   0.10110342 
24360000  0.096620894 
24370000   0.10674953 
24380000   0.10554485 
24390000   0.10565594 
24400000   0.10454515 
24410000   0.09982608 
24420000  0.092774142 
24430000  0.097154899 
24440000   0.10934581 
24450000   0.10926262 
24460000   0.09261341 
24470000    0.1023532 
24480000  0.093135498 
24490000   0.10596109 
24500000   0.10840662 
24510000  0.097689489 
24520000   0.10276846 
24530000   0.10321399 
24540000  0.097322596 
24550000  0.095321031 
24560000   0.10221149 
24570000    0.0952561 
24580000  0.089309825 
24590000  0.097436188 
24600000   0.10390906 
24610000   0.10177414 
24620000   0.10985188 
24630000   0.09716332 
24640000  0.096104599 
24650000   0.10085298 
24660000   0.11438519 
24670000   0.10007113 
24680000  0.099987308 
24690000   0.10260037 
24700000   0.10593799 
24710000  0.094029152 
24720000  0.098421328 
24730000  0.087329546 
24740000  0.096568488 
24750000   0.10739742 
24760000    0.1118473 
24770000  0.097772739 
24780000  0.092583923 
24790000  0.095233098 
24800000  0.090738277 
24810000   0.10045199 
24820000   0.10027052 
24830000   0.11092911 
24840000  0.094741251 
24850000   0.10194807 
24860000  0.099324246 
24870000   0.10367292 
24880000   0.10720328 
24890000    0.1036521 
24900000  0.086622495 
24910000  0.094108776 
24920000   0.10477842 
24930000   0.10929752 
24940000    0.1027446 
24950000  0.099023072 
24960000   0.09861451 
24970000  0.099442477 
24980000  0.097682121 
24990000  0.091828138 
25000000   0.10484557 
25010000  0.099196319 
25020000   0.10771549 
25030000   0.10242771 
25040000   0.10346021 
25050000   0.10011228 
25060000  0.098614924 
25070000  0.097332061 
25080000  0.095940652 
25090000  0.098948833 
25100000  0.090295698 
25110000  0.098771857 
25120000   0.09852552 
25130000   0.10416356 
25140000  0.095052956 
25150000   0.10430665 
25160000    0.1028575 
25170000  0.099506665 
25180000    0.1079126 
25190000  0.098157594 
25200000   0.10342814 
25210000  0.098276262 
25220000   0.10355694 
25230000   0.10817145 
25240000  0.099040755 
25250000  0.098715702 
25260000  0.099048276 
25270000   0.10800223 
25280000   0.09737275 
25290000  0.097863948 
25300000  0.095603766 
25310000  0.097504616 
25320000   0.10265825 
25330000  0.097934797 
25340000   0.10796183 
25350000  0.091249062 
25360000   0.10451121 
25370000  0.090852366 
25380000     0.104934 
25390000  0.097275563 
25400000  0.097433301 
25410000   0.11070662 
25420000   0.10358842 
25430000   0.10052618 
25440000   0.10039664 
25450000   0.10655258 
25460000   0.10058096 
25470000  0.094208165 
25480000  0.097701202 
25490000  0.099589072 
25500000    0.1055383 
25510000   0.10703901 
25520000  0.095853386 
25530000  0.091608849 
25540000  0.097867845 
25550000   0.10001665 
25560000   0.10527979 
25570000  0.098019974 
25580000   0.10702079 
25590000   0.10256603 
25600000  0.092323837 
25610000   0.10467899 
25620000  0.099205631 
25630000   0.10077468 
25640000   0.10814733 
25650000   0.10265132 
25660000  0.098830644 
25670000  0.097343615 
25680000   0.10293227 
25690000  0.097358307 
25700000   0.10042677 
25710000  0.096347817 
25720000   0.10806035 
25730000   0.10594478 
25740000  0.098289024 
25750000   0.10733469 
25760000  0.099305227 
25770000   0.10689913 
25780000    0.1050543 
25790000  0.088289378 
25800000   0.10971664 
25810000  0.089864363 
25820000   0.10590764 
25830000   0.11038714 
25840000   0.10629593 
25850000   0.10041636 
25860000   0.10303991 
25870000   0.10112354 
25880000  0.099900175 
25890000    0.0858325 
25900000  0.088096266 
25910000   0.10480766 
25920000  0.096032009 
25930000   0.10775309 
25940000    0.0916275 
25950000   0.10257623 
25960000   0.09995924 
25970000   0.10708687 
25980000  0.096908603 
25990000   0.10787625 
26000000   0.11030085 
26010000  0.099269186 
26020000  0.098292429 
26030000   0.10452464 
26040000   0.10211241 
26050000  0.098913713 
26060000    0.1102686 
26070000     0.103766 
26080000    0.1034409 
26090000   0.10012197 
26100000   0.10962472 
26110000   0.10687135 
26120000  0.098596688 
26130000   0.10086856 
26140000   0.10407042 
26150000   0.10151322 
26160000   0.10218875 
26170000  0.094310061 
26180000   0.11767521 
26190000  0.092049265 
26200000   0.10758455 
26210000   0.10427302 
26220000  0.090005213 
26230000   0.10179096 
26240000  0.099235935 
26250000   0.11495251 
26260000  0.097009063 
26270000   0.10823654 
26280000   0.10401416 
26290000   0.10413514 
26300000  0.095011321 
26310000   0.10090348 
26320000   0.09760013 
26330000  0.098997055 
26340000   0.10557255 
26350000  0.099512146 
26360000   0.10013973 
26370000   0.10971863 
26380000   0.11022917 
26390000  0.089259385 
26400000  0.098788736 
26410000  0.095812854 
26420000   0.10797323 
26430000   0.10787476 
26440000  0.097348682 
26450000   0.09541779 
26460000  0.090957083 
26470000   0.10930182 
26480000  0.098688032 
26490000  0.097697631 
26500000   0.10293673 
26510000  0.094614295 
26520000  0.098329463 
26530000  0.099792546 
26540000     0.105682 
26550000   0.10214094 
26560000  0.095702464 
26570000  0.094882823 
26580000  0.098491024 
26590000   0.10370723 
26600000   0.11309404 
26610000  0.090430659 
26620000  0.091506307 
26630000  0.091878057 
26640000    0.1063929 
26650000  0.099834977 
26660000  0.099923254 
26670000  0.098772751 
26680000   0.10195613 
26690000   0.10579159 
26700000  0.098090366 
26710000   0.10230542 
26720000   0.10935076 
26730000   0.10607868 
26740000  0.099370373 
26750000   0.10150384 
26760000   0.11125904 
26770000  0.098501875 
26780000   0.10642954 
26790000  0.095110181 
26800000   0.11078235 
26810000  0.097487966 
26820000   0.10706026 
26830000  0.096209807 
26840000  0.092164666 
26850000   0.10144272 
26860000   0.10005326 
26870000   0.10518677 
26880000   0.10955117 
26890000   0.10403423 
26900000   0.10150598 
26910000  0.089072275 
26920000   0.11264566 
26930000  0.098651132 
26940000   0.10261817 
26950000  0.091594457 
26960000  0.094946992 
26970000   0.10270551 
26980000   0.10182933 
26990000   0.10011116 
27000000  0.098228438 
27010000   0.09478292 
27020000  0.095953707 
27030000  0.093364275 
27040000   0.10037056 
27050000   0.10047361 
27060000   0.10208846 
27070000  0.094963601 
27080000  0.095195265 
27090000  0.094971938 
27100000   0.10721799 
27110000  0.098032681 
27120000   0.10297643 
27130000  0.092666264 
27140000  0.096850198 
27150000   0.10982514 
27160000   0.10976005 
27170000   0.10478505 
27180000   0.10045796 
27190000  0.099192534 
27200000  0.096104219 
27210000   0.10460298 
27220000   0.10242969 
27230000  0.099735935 
27240000   0.10174965 
27250000  0.099611711 
27260000  0.096389774 
27270000   0.10190632 
27280000   0.10938677 
27290000   0.10437922 
27300000  0.099091452 
27310000   0.10351006 
[...]
372190000    0.1059318 
372200000  0.099974565 
372210000    0.1010506 
372220000  0.089928092 
372230000    0.1013284 
372240000   0.10493761 
372250000  0.095330824 
372260000   0.10754786 
372270000  0.090920686 
372280000  0.092369285 
372290000  0.098513197 
372300000  0.098232118 
372310000   0.09310276 
372320000    0.1056022 
372330000  0.089541937 
372340000  0.097130372 
372350000   0.09884311 
372360000  0.093810238 
372370000   0.10947114 
372380000  0.095203557 
372390000  0.092347185 
372400000  0.099393569 
372410000   0.10656428 
372420000   0.10446584 
372430000  0.097610002 
372440000  0.096767472 
372450000    0.1076904 
372460000   0.10383422 
372470000   0.10389477 
372480000   0.10410842 
372490000   0.10389275 
372500000  0.096049431 
372510000   0.10370183 
372520000  0.089177481 
372530000  0.098428987 
372540000  0.096676845 
372550000  0.099936036 
372560000    0.1017938 
372570000   0.10444472 
372580000  0.097726708 
372590000   0.10103023 
372600000   0.10920892 
372610000   0.11071929 
372620000  0.099314322 
372630000  0.095079652 
372640000   0.10468589 
372650000  0.096413379 
372660000  0.091706069 
372670000   0.10208113 
372680000  0.098540173 
372690000   0.10263867 
372700000   0.10579967 
372710000   0.10086265 
372720000   0.11020277 
372730000  0.095684376 
372740000   0.09285033 
372750000   0.10362267 
372760000   0.10817911 
372770000  0.098815886 
372780000   0.10898099 
372790000   0.10220347 
372800000  0.097932448 
372810000   0.10200368 
372820000    0.1074167 
372830000   0.10091564 
372840000  0.095876591 
372850000   0.10070892 
372860000  0.097055549 
372870000   0.10331169 
372880000   0.10434205 
372890000  0.095462917 
372900000  0.090189783 
372910000   0.11188212 
372920000   0.10088462 
372930000  0.094401022 
372940000  0.094970312 
372950000  0.097618499 
372960000  0.086952399 
372970000    0.1066852 
372980000   0.10551463 
372990000  0.092376788 
373000000   0.10321142 
373010000   0.10792066 
373020000  0.093967672 
373030000   0.10169207 
373040000   0.10102372 
373050000  0.096259439 
373060000  0.099714526 
373070000  0.099562323 
373080000   0.10125231 
373090000   0.10041935 
373100000   0.10094778 
373110000  0.091285204 
373120000  0.094266495 
373130000  0.095892224 
373140000   0.10359367 
373150000   0.10227477 
373160000   0.10523193 
373170000   0.10768526 
373180000  0.095322572 
373190000   0.11046527 
373200000  0.096810533 
373210000  0.098687887 
373220000   0.10109564 
373230000  0.087681223 
373240000   0.10429762 
373250000   0.10715672 
373260000   0.10907149 
373270000    0.1085278 
373280000  0.093639458 
373290000  0.094431848 
373300000   0.11110847 
373310000  0.092752388 
373320000   0.11186889 
373330000   0.10488716 
373340000   0.10494662 
373350000   0.10019214 
373360000   0.10931158 
373370000  0.093450807 
373380000   0.11505357 
373390000   0.11089938 
373400000   0.10047201 
373410000  0.098418022 
373420000   0.10205904 
373430000    0.1066538 
373440000   0.10947995 
373450000   0.10810618 
373460000   0.11709078 
373470000   0.10035977 
373480000  0.095600494 
373490000  0.093142821 
373500000   0.10586628 
373510000   0.10272009 
373520000   0.10228418 
373530000   0.09216297 
373540000   0.10171904 
373550000   0.10127833 
373560000  0.092325811 
373570000  0.092937022 
373580000  0.092010925 
373590000   0.10028086 
373600000  0.096594668 
373610000   0.10199507 
373620000  0.099231435 
373630000  0.095657891 
373640000   0.10559452 
373650000   0.11086342 
373660000  0.099265651 
373670000   0.10673144 
373680000   0.10509623 
373690000  0.094754292 
373700000  0.094584398 
373710000   0.10639536 
373720000   0.10371789 
373730000  0.095865425 
373740000  0.099874996 
373750000  0.092623585 
373760000   0.10323825 
373770000   0.10328722 
373780000  0.097341593 
373790000  0.097564747 
373800000  0.091414501 
373810000   0.10866476 
373820000   0.10455669 
373830000    0.1070269 
373840000   0.10379729 
373850000   0.10421684 
373860000   0.10481067 
373870000  0.099297276 
373880000   0.10134876 
373890000  0.096343379 
373900000   0.09523083 
373910000  0.095394598 
373920000  0.094969416 
373930000   0.11274912 
373940000   0.10435547 
373950000   0.10096723 
373960000   0.10138599 
373970000  0.098923659 
373980000    0.1016903 
373990000  0.097419224 
374000000   0.10283559 
374010000   0.10168745 
374020000   0.09040142 
374030000   0.11812186 
374040000    0.1063055 
374050000  0.095271606 
374060000    0.1027214 
374070000   0.11357108 
374080000  0.099749099 
374090000   0.10296847 
374100000  0.089199806 
374110000   0.09489064 
374120000   0.10022953 
374130000  0.093168772 
374140000  0.090289782 
374150000  0.096218686 
374160000  0.099872875 
374170000  0.099144155 
374180000   0.10936437 
374190000  0.099281157 
374200000  0.092502538 
374210000   0.10135135 
374220000   0.10991318 
374230000  0.091528267 
374240000  0.096603179 
374250000  0.087982306 
374260000   0.10754347 
374270000   0.10916686 
374280000   0.09630985 
374290000   0.10338449 
374300000   0.10857314 
374310000  0.096575864 
374320000  0.098328019 
374330000   0.10322628 
374340000    0.1049263 
374350000   0.10600745 
374360000  0.099956707 
374370000  0.099605714 
374380000   0.10384716 
374390000   0.10234064 
374400000  0.094338457 
374410000  0.095285821 
374420000   0.10128734 
374430000   0.11494985 
374440000  0.094746015 
374450000   0.10141679 
374460000   0.10469446 
374470000   0.10861418 
374480000  0.095419944 
374490000    0.0927664 
374500000   0.10911525 
374510000  0.099098966 
374520000  0.096273151 
374530000     0.101745 
374540000   0.10560268 
374550000  0.094919239 
374560000   0.10760575 
374570000   0.10447922 
374580000  0.088818497 
374590000  0.099996204 
374600000  0.094620767 
374610000  0.097702404 
374620000   0.09493045 
374630000    0.1017913 
374640000   0.10296783 
374650000   0.10447569 
374660000  0.084724889 
374670000   0.10632053 
374680000   0.10333083 
374690000  0.099132072 
374700000    0.1014611 
374710000   0.10213832 
374720000   0.11663107 
374730000  0.094765119 
374740000  0.099118651 
374750000  0.094541631 
374760000  0.092600296 
374770000   0.11058364 
374780000  0.089146165 
374790000   0.10491461 
374800000   0.09603477 
374810000   0.10115934 
374820000   0.10248524 
374830000    0.1053737 
374840000  0.096963607 
374850000  0.095311906 
374860000    0.1011724 
374870000   0.10014285 
374880000  0.099135377 
374890000  0.096532694 
374900000   0.10025644 
374910000  0.096966669 
374920000  0.096002377 
374930000  0.095147788 
374940000  0.099964944 
374950000   0.10911467 
374960000   0.10546108 
374970000   0.10503668 
374980000   0.10309515 
374990000  0.098844031 
375000000   0.10012572 
375010000  0.091749797 
375020000  0.098289472 
375030000  0.098507122 
375040000  0.097174051 
375050000  0.093031639 
375060000  0.097544861 
375070000  0.099065516 
375080000    0.1065587 
375090000   0.10042179 
375100000   0.10162756 
375110000  0.088617322 
375120000  0.089202888 
375130000   0.10228756 
375140000   0.11264117 
375150000  0.098337402 
375160000   0.10443216 
375170000  0.092398628 
375180000   0.10225758 
375190000   0.10865618 
375200000  0.096087087 
375210000   0.10168328 
375220000  0.096725058 
375230000   0.10411033 
375240000   0.10062652 
375250000  0.097705166 
375260000  0.089239411 
375270000  0.092895664 
375280000    0.1019104 
375290000    0.1004492 
375300000  0.099303874 
375310000   0.10025582 
375320000   0.10075034 
375330000   0.10754668 
375340000  0.096692137 
375350000  0.093842639 
375360000   0.11454203 
375370000  0.090800791 
375380000   0.10483197 
375390000   0.10529329 
375400000  0.086183129 
375410000   0.10918576 
375420000  0.097230835 
375430000   0.10397497 
375440000   0.10197941 
375450000  0.098330123 
375460000   0.10255404 
375470000   0.10427513 
375480000   0.10272931 
375490000   0.10581397 
375500000   0.10385908 
375510000  0.095714164 
375520000  0.080408045 
375530000   0.11031893 
375540000   0.10257608 
375550000  0.092279886 
375560000   0.10944774 
375570000  0.094595785 
375580000   0.10174267 
375590000   0.10023411 
375600000  0.098991215 
375610000  0.099367176 
375620000   0.09839378 
375630000   0.10957016 
375640000  0.097251216 
375650000  0.097981991 
375660000  0.097728214 
375670000  0.095242543 
375680000   0.10035505 
375690000   0.10399449 
375700000   0.10244201 
375710000  0.096935623 
375720000   0.10426494 
375730000  0.094079986 
375740000  0.092015658 
375750000     0.109681 
375760000   0.10310022 
375770000    0.1002585 
375780000  0.098037056 
375790000  0.091382652 
375800000   0.10286594 
375810000   0.08928991 
375820000   0.10475625 
375830000   0.10160962 
375840000   0.10623197 
375850000   0.10757341 
375860000    0.1014912 
375870000  0.099063261 
375880000   0.10979899 
375890000   0.10332234 
375900000  0.092787373 
375910000  0.091889167 
375920000  0.099162756 
375930000   0.10531624 
375940000   0.11249872 
375950000  0.096965774 
375960000   0.10627425 
375970000  0.094188768 
375980000  0.096215514 
375990000   0.10158605 
376000000   0.11577669 
376010000   0.10609894 
376020000   0.11029205 
376030000    0.1016143 
376040000   0.09651555 
376050000   0.10420741 
376060000   0.09811371 
376070000   0.10587172 
376080000   0.10851516 
376090000  0.097007325 
376100000    0.1099888 
376110000  0.096779316 
376120000   0.09908464 
376130000  0.095836977 
376140000  0.097992775 
376150000   0.10704207 
376160000  0.090012613 
376170000   0.10366555 
376180000  0.096426141 
376190000   0.10352969 
376200000  0.095070098 
376210000   0.10215484 
376220000  0.096895161 
376230000   0.10185164 
376240000   0.10747169 
376250000   0.10078841 
376260000  0.098889804 
376270000  0.090657322 
376280000  0.092392934 
376290000   0.10143365 
376300000   0.10156708 
376310000  0.099775359 
376320000   0.10128418 
376330000   0.10510595 
376340000   0.10241618 
376350000  0.097754354 
376360000   0.10172759 
376370000  0.098787399 
376380000  0.097804468 
376390000   0.10273241 
376400000   0.10844313 
376410000   0.09572085 
376420000  0.094910199 
376430000   0.10663836 
376440000  0.099498983 
376450000    0.1014924 
376460000  0.093424433 
376470000  0.091043636 
376480000   0.10586652 
376490000   0.10419137 
376500000   0.10138611 
376510000  0.092335424 
376520000  0.096279813 
376530000  0.089028876 
376540000   0.10658349 
376550000   0.11367791 
376560000  0.092955075 
376570000    0.1018219 
376580000  0.091162006 
376590000  0.096153552 
376600000   0.10075503 
376610000   0.10761089 
376620000  0.099237602 
376630000  0.098911352 
376640000   0.10272666 
376650000  0.089017773 
376660000   0.08850577 
376670000  0.094501488 
376680000   0.10286907 
376690000  0.099923303 
376700000  0.099451902 
376710000   0.11398992 
376720000   0.11261952 
376730000  0.098896262 
376740000   0.10159681 
376750000   0.10112017 
376760000    0.0997649 
376770000   0.10302539 
376780000  0.094421145 
376790000  0.097368031 
376800000   0.10455995 
376810000   0.10138307 
376820000   0.09736855 
376830000  0.099496354 
376840000   0.09740575 
376850000   0.09307576 
376860000   0.10095288 
376870000  0.096597924 
376880000  0.099809058 
376890000  0.098804514 
376900000  0.091978434 
376910000  0.088924578 
376920000  0.095855692 
376930000   0.10101401 
376940000   0.10836947 
376950000  0.090396261 
376960000   0.10708254 
376970000   0.10538704 
376980000   0.10223273 
376990000  0.094735731 
377000000    0.1066202 
377010000  0.091298816 
377020000   0.11420661 
377030000   0.10591421 
377040000   0.10550378 
377050000   0.10807427 
377060000   0.10840896 
377070000   0.10767692 
377080000   0.10095776 
377090000   0.09936997 
377100000   0.10511774 
377110000   0.10241326 
377120000  0.098541511 
377130000  0.093911534 
377140000  0.090389883 
377150000   0.08926324 
377160000  0.095341299 
377170000   0.10827648 
377180000  0.091265617 
377190000   0.10114188 
377200000  0.098270823 
377210000   0.10107153 
377220000   0.10222114 
377230000   0.10094638 
377240000   0.10976955 
377250000  0.099429403 
377260000   0.10736016 
377270000  0.098503466 
377280000  0.099355761 
377290000   0.10484492 
377300000  0.092650376 
377310000   0.10622353 
377320000  0.093881299 
377330000   0.10446813 
377340000   0.10326469 
377350000   0.09817557 
377360000   0.10231459 
377370000   0.10294689 
377380000   0.10006728 
377390000    0.1010836 
377400000  0.099658046 
377410000   0.10241471 
377420000   0.10842701 
377430000  0.091314214 
377440000   0.10834375 
377450000   0.10160903 
377460000   0.11008608 
377470000  0.098627446 
377480000   0.10889219 
377490000  0.095023166 
377500000  0.099923355 
377510000  0.099510114 
377520000   0.10250884 
377530000   0.10087317 
377540000   0.10691011 
377550000  0.098335603 
377560000  0.097766885 
377570000   0.10797458 
377580000   0.10875309 
377590000   0.09621728 
377600000   0.10307446 
377610000   0.10527188 
377620000  0.098460832 
377630000   0.10983433 
377640000   0.10925472 
377650000   0.10447051 
377660000  0.099572249 
377670000   0.10202841 
377680000  0.098649486 
377690000  0.095541117 
377700000   0.11629209 
377710000   0.10155445 
377720000  0.098757144 
377730000   0.10230091 
377740000   0.10071227 
377750000  0.099984247 
377760000   0.10177003 
377770000   0.10978958 
377780000  0.093813039 
377790000   0.11276654 
377800000   0.10000015 
377810000    0.1061621 
377820000   0.10889231 
377830000  0.096518164 
377840000  0.097463973 
377850000   0.10431512 
377860000   0.10069138 
377870000  0.099702703 
377880000   0.11246738 
377890000   0.10392198 
377900000  0.097107671 
377910000  0.097064919 
377920000   0.10905963 
377930000  0.096226969 
377940000  0.099314599 
377950000   0.10973215 
377960000  0.098545734 
377970000  0.098142016 
377980000  0.090331971 
377990000   0.10181709 
378000000   0.10993955 
378010000  0.092845196 
378020000  0.095169409 
378030000   0.10330375 
378040000  0.098052538 
378050000  0.096164925 
378060000   0.10134892 
378070000  0.095707339 
378080000  0.098785856 
378090000  0.099645478 
378100000     0.093512 
378110000   0.11157836 
378120000   0.10552687 
378130000  0.098911272 
378140000  0.099813021 
378150000  0.094472322 
378160000   0.10293519 
378170000  0.099858988 
378180000  0.095504547 
378190000    0.1019179 
378200000  0.096516838 
378210000   0.10623695 
378220000  0.089603184 
378230000  0.094330468 
378240000  0.097851441 
378250000  0.098856975 
378260000   0.10539605 
378270000  0.096040975 
378280000  0.099551392 
378290000   0.10501647 
378300000   0.10629497 
378310000  0.098537253 
378320000  0.098780797 
378330000   0.10545595 
378340000    0.1094259 
378350000  0.099822139 
378360000  0.093582944 
378370000  0.098481225 
378380000  0.097465211 
378390000  0.099240995 
378400000    0.1129428 
378410000   0.10951143 
378420000   0.10559231 
378430000  0.098290389 
378440000   0.10375921 
378450000  0.093369958 
378460000    0.1036743 
378470000  0.099005518 
378480000  0.091605206 
378490000   0.10352578 
378500000  0.096749876 
378510000   0.10085628 
378520000   0.11009994 
378530000  0.090593428 
378540000  0.096778436 
378550000   0.10156563 
378560000   0.10004335 
378570000   0.10149408 
378580000   0.10565331 
378590000   0.10947242 
378600000  0.096054958 
378610000   0.10107077 
378620000   0.09436464 
378630000  0.093725528 
378640000    0.1008557 
378650000   0.10504154 
378660000   0.10273038 
378670000   0.10020956 
378680000  0.098216566 
378690000   0.10673728 
378700000   0.09486243 
378710000  0.099676044 
378720000  0.095311261 
378730000   0.09952037 
378740000   0.09747274 
378750000   0.11419853 
378760000     0.100867 
378770000  0.091174772 
378780000   0.10550619 
378790000   0.10436552 
378800000   0.10888542 
378810000   0.10811572 
378820000   0.11006989 
378830000   0.10587679 
378840000   0.08874234 
378850000  0.095719178 
378860000   0.09077633 
378870000  0.095518415 
378880000   0.10985719 
378890000   0.10853992 
378900000  0.099150988 
378910000  0.091506129 
378920000   0.10995267 
378930000    0.1047208 
378940000   0.09931551 
378950000   0.10147789 
378960000   0.10004825 
378970000   0.10721295 
378980000   0.10901712 
378990000   0.10703281 
379000000  0.097101542 
379010000   0.10211797 
379020000  0.098825798 
379030000   0.11156846 
379040000    0.1018256 
379050000   0.10402552 
379060000  0.092668547 
379070000   0.10387486 
379080000  0.095708596 
379090000  0.095413375 
379100000   0.10687186 
379110000  0.095561412 
379120000  0.095260886 
379130000   0.10201332 
379140000  0.096333315 
379150000   0.11080941 
379160000  0.097435507 
379170000   0.10352888 
379180000  0.096278634 
379190000   0.10189036 
379200000   0.10090599 
379210000   0.10437767 
379220000   0.10385166 
379230000  0.099416218 
379240000  0.096426499 
379250000  0.098190925 
379260000   0.10948902 
379270000   0.10323129 
379280000   0.10316254 
379290000   0.10097484 
379300000  0.094819433 
379310000  0.098985698 
379320000   0.10161805 
379330000  0.090829937 
379340000  0.092110653 
379350000  0.099654252 
379360000   0.09912359 
379370000   0.10542976 
379380000   0.10207123 
379390000   0.10938112 
379400000  0.099410366 
379410000   0.10253009 
379420000   0.10772899 
379430000   0.10230558 
379440000     0.100355 
379450000   0.11105401 
379460000  0.096410664 
379470000   0.10125643 
379480000   0.10392573 
379490000  0.099029172 
379500000   0.10133541 
379510000  0.095334425 
379520000   0.10857668 
379530000  0.097087088 
379540000  0.094919345 
379550000  0.099014814 
379560000  0.099482224 
379570000  0.092998417 
379580000   0.10031701 
379590000   0.10892142 
379600000  0.093820056 
379610000   0.10181281 
379620000  0.083939986 
379630000  0.099736772 
379640000   0.09535559 
379650000   0.10804728 
379660000   0.10282994 
379670000   0.09910261 
379680000   0.10058756 
379690000    0.1069333 
379700000   0.10229803 
379710000   0.10346824 
379720000  0.095358693 
379730000  0.095921856 
379740000   0.10058055 
379750000  0.097671246 
379760000   0.10041777 
379770000  0.093791816 
379780000    0.0966775 
379790000  0.089381306 
379800000   0.10159382 
379810000   0.10457774 
379820000   0.10010049 
379830000  0.092557424 
379840000   0.10087275 
379850000   0.10133462 
379860000  0.096186977 
379870000  0.086774682 
379880000  0.087118245 
379890000   0.10579226 
379900000   0.11006901 
379910000   0.10654352 
379920000   0.10046323 
379930000   0.10536507 
379940000    0.1069176 
379950000  0.099183634 
379960000  0.093479467 
379970000    0.1022615 
379980000  0.097611877 
379990000    0.1007531 
380000000  0.099274025 
Loop time of 258114 on 1 procs for 200000000 steps with 186 atoms

Performance: 66947.206 tau/day, 774.852 timesteps/s
100.0% CPU use with 1 MPI tasks x no OpenMP threads

MPI task timing breakdown:
Section |  min time  |  avg time  |  max time  |%varavg| %total
---------------------------------------------------------------
Pair    | 2.4717e+05 | 2.4717e+05 | 2.4717e+05 |   0.0 | 95.76
Bond    | 2198.4     | 2198.4     | 2198.4     |   0.0 |  0.85
Neigh   | 10.471     | 10.471     | 10.471     |   0.0 |  0.00
Comm    | 426.41     | 426.41     | 426.41     |   0.0 |  0.17
Output  | 9.8599     | 9.8599     | 9.8599     |   0.0 |  0.00
Modify  | 8169       | 8169       | 8169       |   0.0 |  3.16
Other   |            | 128.7      |            |       |  0.05

Nlocal:        186.000 ave         186 max         186 min
Histogram: 1 0 0 0 0 0 0 0 0 0
Nghost:        126.000 ave         126 max         126 min
Histogram: 1 0 0 0 0 0 0 0 0 0
Neighs:        6729.00 ave        6729 max        6729 min
Histogram: 1 0 0 0 0 0 0 0 0 0

Total # of neighbors = 6729
Ave neighs/atom = 36.177419
Ave special neighs/atom = 5.7419355
Neighbor list builds = 41538
Dangerous builds = 0
Total wall time: 148:24:35
