LAMMPS (29 Sep 2021 - Update 2)
#The sequence-specific interactions can be turned on/off choosing between seqdep/seqav
variable seqspec index seqdep

#Specify the temperature of the system (0.1 in SU is equivalent to 300K)
variable tem equal 0.1


### Salt concentration  ####
############################
#Specify the salt concentration the system (1.0 in SU is equivalent to 1M [NaCl])
variable sc   equal 0.15

#Effective charge in elementary charges
variable qeff equal 0.815


### Stacking parameters ####
############################
#Temperature-independent coefficient in stacking strength
variable xi    equal 1.3523

#Coefficient of linear temperature dependence in stacking strength
variable kappa equal 2.6717


### Hbond parameters ####
#########################
#Energy: 1.0678 (between base pairs A-T and C-G) and 0 (all other pairs)
variable eps equal 1.0678


#5.- The damp parameter. The default value is 0.03. The accelerated value is 1.0
variable tdamp    equal 0.03
variable tdampacc equal 2.5


#6.- The total number of nucleotides in the system
variable N equal 147

variable seed equal 402987

#The times
variable dumpfreq   equal 100000
variable trestart   equal 10000000

#total running time
variable runtime1 equal 1000000000
variable runtime2 equal 200000000



units lj

dimension 3

newton off

boundary  p p p

atom_style hybrid bond ellipsoid oxdna
WARNING: Write_data command requires newton on to preserve 3'->5' bond polarity (../atom_vec_oxdna.cpp:52)
WARNING: Atom style hybrid defines both, per-type and per-atom masses; both must be set, but only per-atom masses will be used (../atom_vec_hybrid.cpp:157)
atom_modify sort 0 1.0

# Pair interactions require lists of neighbours to be calculated
neighbor 2.0 bin
neigh_modify every 1 delay 0 check yes

restart ${trestart} oxDNA.equil.N${N}.Restart
restart 10000000 oxDNA.equil.N${N}.Restart
restart 10000000 oxDNA.equil.N147.Restart
#read_data val3.lammps.txt
read_restart data/oxDNA.equil.N${N}.Restart.20000000
read_restart data/oxDNA.equil.N147.Restart.20000000
Reading restart file ...
  restart file = 29 Sep 2021, LAMMPS = 29 Sep 2021
WARNING: Write_data command requires newton on to preserve 3'->5' bond polarity (../atom_vec_oxdna.cpp:52)
WARNING: Atom style hybrid defines both, per-type and per-atom masses; both must be set, but only per-atom masses will be used (../atom_vec_hybrid.cpp:157)
  restoring atom style hybrid from restart
  orthogonal box = (0.0000000 0.0000000 0.0000000) to (32.000000 32.000000 32.000000)
  1 by 1 by 1 MPI processor grid
  restoring pair style hybrid/overlay from restart
  restoring bond style oxdna2/fene from restart
  147 atoms
  144 bonds
Finding 1-2 1-3 1-4 neighbors ...
  special bond factors lj:    0        1        1       
  special bond factors coul:  0        0        0       
     2 = max # of 1-2 neighbors
     2 = max # of 1-3 neighbors
     4 = max # of 1-4 neighbors
     6 = max # of special neighbors
  special bonds CPU = 0.000 seconds
  read_restart CPU = 0.005 seconds
reset_timestep 0

set atom * mass 3.1575
Setting atom values ...
  147 settings made for mass

#Groups
group all type 1:4
147 atoms in group all


# oxDNA2 bond interactions - FENE backbone
bond_style oxdna2/fene
bond_coeff * 2.0 0.25 0.7564
special_bonds lj 0 1 1

# oxDNA2 pair interactions
pair_style hybrid/overlay oxdna2/excv oxdna2/stk oxdna2/hbond oxdna2/xstk oxdna2/coaxstk oxdna2/dh
pair_coeff * * oxdna2/excv               2.0 0.7 0.675 2.0 0.515 0.5 2.0 0.33 0.32
pair_coeff * * oxdna2/stk     ${seqspec} ${tem} ${xi} ${kappa} 6.0 0.4 0.9 0.32 0.75 1.3 0 0.8 0.9 0 0.95 0.9 0 0.95 2.0 0.65 2.0 0.65
pair_coeff * * oxdna2/stk     seqdep ${tem} ${xi} ${kappa} 6.0 0.4 0.9 0.32 0.75 1.3 0 0.8 0.9 0 0.95 0.9 0 0.95 2.0 0.65 2.0 0.65
pair_coeff * * oxdna2/stk     seqdep 0.1 ${xi} ${kappa} 6.0 0.4 0.9 0.32 0.75 1.3 0 0.8 0.9 0 0.95 0.9 0 0.95 2.0 0.65 2.0 0.65
pair_coeff * * oxdna2/stk     seqdep 0.1 1.3523 ${kappa} 6.0 0.4 0.9 0.32 0.75 1.3 0 0.8 0.9 0 0.95 0.9 0 0.95 2.0 0.65 2.0 0.65
pair_coeff * * oxdna2/stk     seqdep 0.1 1.3523 2.6717 6.0 0.4 0.9 0.32 0.75 1.3 0 0.8 0.9 0 0.95 0.9 0 0.95 2.0 0.65 2.0 0.65
pair_coeff * * oxdna2/hbond   ${seqspec} 0.0 8.0 0.4 0.75 0.34 0.7 1.5 0 0.7 1.5 0 0.7 1.5 0 0.7 0.46 3.141592653589793 0.7 4.0 1.5707963267948966 0.45 4.0 1.5707963267948966 0.45
pair_coeff * * oxdna2/hbond   seqdep 0.0 8.0 0.4 0.75 0.34 0.7 1.5 0 0.7 1.5 0 0.7 1.5 0 0.7 0.46 3.141592653589793 0.7 4.0 1.5707963267948966 0.45 4.0 1.5707963267948966 0.45
pair_coeff 1 4 oxdna2/hbond   ${seqspec} ${eps} 8.0 0.4 0.75 0.34 0.7 1.5 0 0.7 1.5 0 0.7 1.5 0 0.7 0.46 3.141592653589793 0.7 4.0 1.5707963267948966 0.45 4.0 1.5707963267948966 0.45
pair_coeff 1 4 oxdna2/hbond   seqdep ${eps} 8.0 0.4 0.75 0.34 0.7 1.5 0 0.7 1.5 0 0.7 1.5 0 0.7 0.46 3.141592653589793 0.7 4.0 1.5707963267948966 0.45 4.0 1.5707963267948966 0.45
pair_coeff 1 4 oxdna2/hbond   seqdep 1.0678 8.0 0.4 0.75 0.34 0.7 1.5 0 0.7 1.5 0 0.7 1.5 0 0.7 0.46 3.141592653589793 0.7 4.0 1.5707963267948966 0.45 4.0 1.5707963267948966 0.45
pair_coeff 2 3 oxdna2/hbond   ${seqspec} ${eps} 8.0 0.4 0.75 0.34 0.7 1.5 0 0.7 1.5 0 0.7 1.5 0 0.7 0.46 3.141592653589793 0.7 4.0 1.5707963267948966 0.45 4.0 1.5707963267948966 0.45
pair_coeff 2 3 oxdna2/hbond   seqdep ${eps} 8.0 0.4 0.75 0.34 0.7 1.5 0 0.7 1.5 0 0.7 1.5 0 0.7 0.46 3.141592653589793 0.7 4.0 1.5707963267948966 0.45 4.0 1.5707963267948966 0.45
pair_coeff 2 3 oxdna2/hbond   seqdep 1.0678 8.0 0.4 0.75 0.34 0.7 1.5 0 0.7 1.5 0 0.7 1.5 0 0.7 0.46 3.141592653589793 0.7 4.0 1.5707963267948966 0.45 4.0 1.5707963267948966 0.45
pair_coeff * * oxdna2/xstk               47.5 0.575 0.675 0.495 0.655 2.25 0.791592653589793 0.58 1.7 1.0 0.68 1.7 1.0 0.68 1.5 0 0.65 1.7 0.875 0.68 1.7 0.875 0.68
pair_coeff * * oxdna2/coaxstk            58.5 0.4 0.6 0.22 0.58 2.0 2.891592653589793 0.65 1.3 0 0.8 0.9 0 0.95 0.9 0 0.95 40.0 3.116592653589793
pair_coeff * * oxdna2/dh                 ${tem} ${sc} ${qeff}
pair_coeff * * oxdna2/dh                 0.1 ${sc} ${qeff}
pair_coeff * * oxdna2/dh                 0.1 0.15 ${qeff}
pair_coeff * * oxdna2/dh                 0.1 0.15 0.815


# NVE ensemble
fix 1 all nve/asphere
fix 2 all langevin ${tem} ${tem} ${tdamp} ${seed} angmom 10
fix 2 all langevin 0.1 ${tem} ${tdamp} ${seed} angmom 10
fix 2 all langevin 0.1 0.1 ${tdamp} ${seed} angmom 10
fix 2 all langevin 0.1 0.1 0.03 ${seed} angmom 10
fix 2 all langevin 0.1 0.1 0.03 402987 angmom 10
timestep 1e-3


#Useful commands when running in parallel
#comm_style tiled
#fix 3 all balance 10000 1.1 rcb
#comm_modify cutoff 2.65

thermo 10000
thermo_style custom  step  temp

compute erot all erotate/asphere
compute ekin all ke
compute epot all pe
variable erot equal c_erot
variable ekin equal c_ekin
variable epot equal c_epot
variable etot equal c_erot+c_ekin+c_epot
fix 4 all print ${dumpfreq} "$(step)  ekin = ${ekin} |  erot = ${erot} | epot = ${epot} | etot = ${etot}" screen no append energy_total.txt
fix 4 all print 100000 "$(step)  ekin = ${ekin} |  erot = ${erot} | epot = ${epot} | etot = ${etot}" screen no append energy_total.txt

shell mkdir data
WARNING: Shell command 'mkdir' failed with error 'File exists' (../input.cpp:1213)
shell cd data

#compute shape all property/atom shapex shapey shapez
compute quat all property/atom quatw quati quatj quatk

dump out all custom ${dumpfreq} out.data id mol type x y z ix iy iz c_quat[1] c_quat[2] c_quat[3] c_quat[4]
dump out all custom 100000 out.data id mol type x y z ix iy iz c_quat[1] c_quat[2] c_quat[3] c_quat[4]
dump_modify out sort id
dump_modify out format line "%d %d %d %.6le %.6le %.6le %d %d %d %.6le %.6le %.6le %.6le"

run ${runtime1}
run 1000000000
Neighbor list info ...
  update every 1 steps, delay 0 steps, check yes
  max neighbors/atom: 2000, page size: 100000
  master list distance cutoff = 6.2019411
  ghost atom cutoff = 6.2019411
  binsize = 3.1009705, bins = 11 11 11
  5 neighbor lists, perpetual/occasional/extra = 5 0 0
  (1) pair oxdna2/excv, perpetual
      attributes: half, newton off
      pair build: half/bin/newtoff
      stencil: full/bin/3d
      bin: standard
  (2) pair oxdna2/hbond, perpetual, copy from (1)
      attributes: half, newton off
      pair build: copy
      stencil: none
      bin: none
  (3) pair oxdna2/xstk, perpetual, copy from (1)
      attributes: half, newton off
      pair build: copy
      stencil: none
      bin: none
  (4) pair oxdna2/coaxstk, perpetual, copy from (1)
      attributes: half, newton off
      pair build: copy
      stencil: none
      bin: none
  (5) pair oxdna2/dh, perpetual, copy from (1)
      attributes: half, newton off
      pair build: copy
      stencil: none
      bin: none
Per MPI rank memory allocation (min/avg/max) = 9.682 | 9.682 | 9.682 Mbytes
Step Temp 
       0   0.10236856 
   10000  0.099755596 
   20000   0.10173039 
   30000   0.10300319 
   40000   0.10145427 
   50000  0.099910715 
   60000   0.10235713 
   70000   0.10148166 
   80000   0.10416548 
   90000   0.10514993 
  100000   0.10540663 
  110000   0.11255673 
  120000  0.093749901 
  130000   0.11418763 
  140000  0.092917259 
  150000  0.092181241 
  160000  0.099478962 
  170000     0.094696 
  180000  0.093904706 
  190000   0.10275401 
  200000  0.097719624 
  210000   0.09755555 
  220000   0.10801438 
  230000  0.098538301 
  240000  0.097265948 
  250000   0.10958545 
  260000  0.099790377 
  270000   0.09617204 
  280000    0.1098559 
  290000   0.10826894 
  300000  0.093620849 
  310000   0.10619062 
  320000   0.10221931 
  330000   0.11141299 
  340000   0.11222021 
  350000   0.11470893 
  360000   0.10186317 
  370000   0.11405952 
  380000  0.098792189 
  390000   0.10443253 
  400000   0.10350175 
  410000   0.10019431 
  420000   0.11488212 
  430000   0.10800023 
  440000  0.096775541 
  450000   0.10712174 
  460000   0.10506803 
  470000   0.10623067 
  480000  0.097693996 
  490000  0.098075711 
  500000   0.11237117 
  510000  0.099162546 
  520000   0.09336031 
  530000  0.088153031 
  540000  0.085696463 
  550000   0.10052648 
  560000   0.10745903 
  570000  0.096847001 
  580000  0.095042482 
  590000  0.097604658 
  600000  0.095294614 
  610000   0.10081716 
  620000   0.10095772 
  630000   0.09476613 
  640000   0.10767748 
  650000   0.09685606 
  660000  0.093856554 
  670000  0.099807087 
  680000   0.11097073 
  690000   0.10451344 
  700000  0.093717554 
  710000   0.10516662 
  720000   0.10212437 
  730000  0.094577061 
  740000  0.094596202 
  750000   0.10497165 
  760000   0.10500309 
  770000  0.086172701 
  780000  0.098562202 
  790000  0.096039346 
  800000   0.10130579 
  810000    0.1110013 
  820000  0.097528108 
  830000   0.10879055 
  840000  0.098522651 
  850000  0.095490353 
  860000  0.094690093 
  870000  0.092948183 
  880000   0.10983716 
  890000  0.099643611 
  900000  0.087240788 
  910000   0.10659642 
  920000   0.10800631 
  930000  0.098789201 
  940000   0.10645988 
  950000    0.0957588 
  960000  0.095337697 
  970000   0.10324311 
  980000   0.10772555 
  990000   0.10449503 
 1000000   0.10138296 
 1010000   0.10755832 
 1020000   0.10308667 
 1030000  0.098595292 
 1040000   0.10395879 
 1050000  0.099551657 
 1060000  0.094368666 
 1070000  0.094693101 
 1080000    0.1020715 
 1090000  0.099300446 
 1100000  0.093711903 
 1110000   0.10930554 
 1120000  0.086074207 
 1130000   0.10358068 
 1140000  0.086052602 
 1150000  0.096997464 
 1160000  0.096933976 
 1170000   0.11451814 
 1180000   0.10127125 
 1190000   0.10188118 
 1200000  0.096507114 
 1210000    0.0977043 
 1220000   0.11513497 
 1230000   0.11176789 
 1240000   0.10349653 
 1250000   0.10696193 
 1260000   0.10203441 
 1270000  0.096435095 
 1280000  0.092137777 
 1290000  0.094779143 
 1300000  0.093031364 
 1310000   0.10045376 
 1320000     0.109088 
 1330000   0.10174004 
 1340000   0.10105573 
 1350000   0.10039112 
 1360000   0.10745322 
 1370000   0.10037657 
 1380000  0.092583838 
 1390000   0.10145682 
 1400000  0.096614653 
 1410000    0.1084544 
 1420000   0.10631462 
 1430000  0.097708121 
 1440000  0.093200806 
 1450000   0.10799972 
 1460000   0.10895411 
 1470000  0.098569799 
 1480000  0.087637033 
 1490000   0.10231686 
 1500000   0.10736429 
 1510000  0.097774974 
 1520000   0.10579724 
 1530000  0.095768864 
 1540000   0.09406009 
 1550000  0.098330463 
 1560000   0.11377611 
 1570000  0.097581982 
 1580000  0.095998442 
 1590000  0.097631178 
 1600000   0.10468898 
 1610000   0.10399168 
 1620000   0.10311163 
 1630000   0.10440949 
 1640000   0.10242882 
 1650000  0.096616229 
 1660000   0.10783522 
 1670000   0.10405154 
 1680000    0.1016043 
 1690000   0.10068505 
 1700000   0.10708954 
 1710000    0.0910631 
 1720000   0.10509077 
 1730000    0.1059092 
 1740000   0.10500966 
 1750000  0.099622698 
 1760000  0.097664169 
 1770000  0.089158323 
 1780000   0.10069323 
 1790000   0.10686118 
 1800000  0.084142041 
 1810000   0.10019604 
 1820000  0.086410098 
 1830000   0.11438856 
 1840000  0.087776777 
 1850000   0.10571675 
 1860000  0.099779851 
 1870000   0.08988185 
 1880000  0.090687936 
 1890000   0.10992471 
 1900000  0.090792976 
 1910000   0.10365763 
 1920000  0.099084531 
 1930000   0.10162306 
 1940000  0.098182758 
 1950000   0.10557435 
 1960000   0.09776298 
 1970000  0.097706664 
 1980000  0.089988522 
 1990000  0.096021817 
 2000000  0.099349402 
 2010000   0.11169194 
 2020000   0.09833485 
 2030000  0.097471495 
 2040000      0.10895 
 2050000   0.10308942 
 2060000  0.097668161 
 2070000   0.10254173 
 2080000   0.10446036 
 2090000  0.097553111 
 2100000  0.096757847 
 2110000   0.10431301 
 2120000  0.093519897 
 2130000   0.10666947 
 2140000  0.092010639 
 2150000  0.094523534 
 2160000   0.11695724 
 2170000  0.088857995 
 2180000  0.087763916 
 2190000  0.098781404 
 2200000   0.10750067 
 2210000   0.10795994 
 2220000  0.094656442 
 2230000   0.10479491 
 2240000  0.099704924 
 2250000   0.11145194 
 2260000  0.091915151 
 2270000  0.096124015 
 2280000   0.10991597 
 2290000   0.10239888 
 2300000   0.10240009 
 2310000   0.10295268 
 2320000   0.10713607 
 2330000   0.10257509 
 2340000   0.10156954 
 2350000  0.095592081 
 2360000  0.088989381 
 2370000  0.095257536 
 2380000   0.10238173 
 2390000   0.10727301 
 2400000  0.095880386 
 2410000   0.10522609 
 2420000  0.095852094 
 2430000   0.10636791 
 2440000  0.097177395 
 2450000   0.10750033 
 2460000   0.10058823 
 2470000    0.1081392 
 2480000  0.088854933 
 2490000   0.10556482 
 2500000   0.10884582 
 2510000   0.10058073 
 2520000    0.1069316 
 2530000   0.10079418 
 2540000  0.090624715 
 2550000  0.097846512 
 2560000  0.092634402 
 2570000  0.093900581 
 2580000   0.11684706 
 2590000   0.10998142 
 2600000  0.092912156 
 2610000   0.10416828 
 2620000  0.096395024 
 2630000   0.10129367 
 2640000  0.092543294 
 2650000    0.1026087 
 2660000  0.099639129 
 2670000  0.085824095 
 2680000  0.095286435 
 2690000   0.10629139 
 2700000   0.11378082 
 2710000   0.10689388 
 2720000   0.10012431 
 2730000    0.0980066 
 2740000   0.09050179 
 2750000  0.091161226 
 2760000    0.1000258 
 2770000   0.10290836 
 2780000  0.096447759 
 2790000  0.093832466 
 2800000   0.09832107 
 2810000  0.087680911 
 2820000   0.10133537 
 2830000   0.10900598 
 2840000  0.098333941 
 2850000   0.11476102 
 2860000   0.11611559 
 2870000   0.11522438 
 2880000   0.10155873 
 2890000   0.10951241 
 2900000   0.11024159 
 2910000   0.09947872 
 2920000   0.10115015 
 2930000  0.093097617 
 2940000   0.10455944 
 2950000  0.093123406 
 2960000  0.099214721 
 2970000  0.097368582 
 2980000  0.089806313 
 2990000  0.096712762 
 3000000   0.10257869 
 3010000   0.10187772 
 3020000   0.10657394 
 3030000   0.10844975 
 3040000  0.093279337 
 3050000   0.10381694 
 3060000  0.092263303 
 3070000   0.10307895 
 3080000  0.094149469 
 3090000  0.092183711 
 3100000   0.10960198 
 3110000    0.1157351 
 3120000   0.10315367 
 3130000   0.10978172 
 3140000    0.1082078 
 3150000   0.10196434 
 3160000  0.099301623 
 3170000   0.10807209 
 3180000    0.1015844 
 3190000   0.11029343 
 3200000   0.10410613 
 3210000  0.096741648 
 3220000  0.097983245 
 3230000   0.10032518 
 3240000  0.090256881 
 3250000   0.09822959 
 3260000  0.096813637 
 3270000   0.11435507 
 3280000   0.10119657 
 3290000  0.094425612 
 3300000  0.094096255 
 3310000  0.093646962 
 3320000  0.096550929 
 3330000   0.10397886 
 3340000    0.1105427 
 3350000  0.089600046 
 3360000   0.10045157 
 3370000  0.093646176 
 3380000   0.10977572 
 3390000   0.10350503 
 3400000   0.10821009 
 3410000  0.093708699 
 3420000   0.10071097 
 3430000   0.09879712 
 3440000  0.098551836 
 3450000   0.10504434 
 3460000   0.10240299 
 3470000   0.10168486 
 3480000  0.094394576 
 3490000  0.090465537 
 3500000   0.10174162 
 3510000  0.097065883 
 3520000   0.10029863 
 3530000   0.09721757 
 3540000   0.10356183 
 3550000  0.098414085 
 3560000   0.10050799 
 3570000  0.093677027 
 3580000   0.10960837 
 3590000  0.088981149 
 3600000   0.10839646 
 3610000  0.091782489 
 3620000  0.098793468 
 3630000  0.098828555 
 3640000   0.11285449 
 3650000   0.10311028 
 3660000  0.097945046 
 3670000   0.10286503 
 3680000   0.10103576 
 3690000   0.10182197 
 3700000   0.11221567 
 3710000   0.10934501 
 3720000  0.098971441 
 3730000  0.097731639 
 3740000   0.10253346 
 3750000    0.1021912 
 3760000   0.10091382 
 3770000  0.098334129 
 3780000  0.087962261 
 3790000   0.10790587 
 3800000   0.10306874 
 3810000   0.10938227 
 3820000   0.10590266 
 3830000   0.10971173 
 3840000   0.10141699 
 3850000   0.11124134 
 3860000   0.10447024 
 3870000  0.090989474 
 3880000     0.103371 
 3890000   0.11342366 
 3900000  0.095802421 
 3910000  0.093417371 
 3920000     0.106198 
 3930000  0.094474657 
 3940000   0.10071136 
 3950000  0.098604571 
 3960000   0.11395781 
 3970000  0.095954626 
 3980000    0.1003762 
 3990000  0.096949452 
 4000000   0.09672598 
 4010000  0.095670502 
 4020000  0.098103638 
 4030000    0.1046352 
 4040000   0.11402502 
 4050000   0.10041268 
 4060000  0.097651528 
 4070000  0.094548922 
 4080000  0.091148351 
 4090000  0.099309518 
 4100000   0.11315672 
 4110000     0.101537 
 4120000   0.12497248 
 4130000   0.10825447 
 4140000   0.10361647 
 4150000  0.099562088 
 4160000  0.088242099 
 4170000  0.094443893 
 4180000  0.095011128 
 4190000  0.098791215 
 4200000   0.10330949 
 4210000  0.088536694 
 4220000   0.11718423 
 4230000  0.091647158 
 4240000    0.1031586 
 4250000   0.10415254 
 4260000  0.092903777 
 4270000   0.10449471 
 4280000  0.093210352 
 4290000  0.096157656 
 4300000   0.10368863 
 4310000   0.09106289 
 4320000   0.10947278 
 4330000  0.096961948 
 4340000  0.092555979 
 4350000   0.10286116 
 4360000  0.098561778 
 4370000  0.097055445 
 4380000  0.094345831 
 4390000  0.093548497 
 4400000   0.10209877 
 4410000   0.10508721 
 4420000   0.10503001 
 4430000   0.10462805 
 4440000  0.093604227 
 4450000  0.090683445 
 4460000   0.10564806 
 4470000   0.09194156 
 4480000  0.098480722 
 4490000   0.10691942 
 4500000   0.10014872 
 4510000  0.099732442 
 4520000    0.1030992 
 4530000  0.095911301 
 4540000   0.11087801 
 4550000  0.097047136 
 4560000  0.087765559 
 4570000   0.10920854 
 4580000  0.092109457 
 4590000   0.10787874 
 4600000   0.09670758 
 4610000   0.10583901 
 4620000   0.10708198 
 4630000  0.094209485 
 4640000   0.10787639 
 4650000  0.098159986 
 4660000    0.1068154 
 4670000   0.10776032 
 4680000   0.10086943 
 4690000  0.096199025 
 4700000  0.095927514 
 4710000    0.1023702 
 4720000  0.088409879 
 4730000   0.10683197 
 4740000   0.11479863 
 4750000   0.10183181 
 4760000    0.1122843 
 4770000  0.093415568 
 4780000  0.092813734 
 4790000  0.091009904 
 4800000   0.10742362 
 4810000   0.10113915 
 4820000  0.093558135 
 4830000   0.10436774 
 4840000  0.092742025 
 4850000  0.087987438 
 4860000  0.095854986 
 4870000   0.10086429 
 4880000    0.1311664 
 4890000   0.10067127 
 4900000   0.10066336 
 4910000  0.089190844 
 4920000   0.10473565 
 4930000    0.1023203 
 4940000  0.096672794 
 4950000   0.10293965 
 4960000  0.095278383 
 4970000   0.10444607 
 4980000   0.10502032 
 4990000  0.089234167 
 5000000   0.10210442 
 5010000    0.1014879 
 5020000  0.096737775 
 5030000  0.083615576 
 5040000   0.11189931 
 5050000  0.082226689 
 5060000   0.10361897 
 5070000   0.10313698 
 5080000  0.095118798 
 5090000   0.10596644 
 5100000  0.098376679 
 5110000    0.0847831 
 5120000  0.099349899 
 5130000  0.091787489 
 5140000   0.10043634 
 5150000  0.095825786 
 5160000  0.097885194 
 5170000   0.10536111 
 5180000  0.096609593 
 5190000  0.098253603 
 5200000  0.095021962 
 5210000   0.10250309 
 5220000  0.089700478 
 5230000  0.098307368 
 5240000  0.097437224 
 5250000   0.10077622 
 5260000  0.091458612 
 5270000  0.095685874 
 5280000  0.096967908 
 5290000   0.10637008 
 5300000  0.096276029 
 5310000  0.096965823 
 5320000   0.10446886 
 5330000   0.10522597 
 5340000   0.10180659 
 5350000   0.09832764 
 5360000   0.11129287 
 5370000   0.10021222 
 5380000   0.10734286 
 5390000   0.10174432 
 5400000   0.10565259 
 5410000   0.11092112 
 5420000   0.10324384 
 5430000  0.095010056 
 5440000   0.10332451 
 5450000   0.10795749 
 5460000   0.11009336 
 5470000   0.10866809 
 5480000  0.095532331 
 5490000  0.098118071 
 5500000  0.097333878 
 5510000  0.097791149 
 5520000  0.097837535 
 5530000   0.10140647 
 5540000    0.0993197 
 5550000   0.10349125 
 5560000  0.093930666 
 5570000  0.090903513 
 5580000   0.11296007 
 5590000  0.096705615 
 5600000   0.10491877 
 5610000  0.095085361 
 5620000  0.096732803 
 5630000  0.091203535 
 5640000  0.097396711 
 5650000   0.10616169 
 5660000   0.09902988 
 5670000   0.11116405 
 5680000   0.11258857 
 5690000  0.093801446 
 5700000  0.099547744 
 5710000   0.10067324 
 5720000  0.093293225 
 5730000   0.10231557 
 5740000   0.09209151 
 5750000  0.097138977 
 5760000   0.10327791 
 5770000   0.10334752 
 5780000   0.10878504 
 5790000  0.097416857 
 5800000   0.10111074 
 5810000   0.10230967 
 5820000  0.095219289 
 5830000  0.091779661 
 5840000  0.093592197 
 5850000   0.10715127 
 5860000  0.084960619 
 5870000   0.12034088 
 5880000  0.097776187 
 5890000   0.09801308 
 5900000  0.099373408 
 5910000  0.098647114 
 5920000  0.094666322 
 5930000   0.10745365 
 5940000  0.098169932 
 5950000   0.09617574 
 5960000   0.10940632 
 5970000  0.091777951 
 5980000   0.09020617 
 5990000   0.11059827 
 6000000  0.095598457 
 6010000   0.10810452 
 6020000  0.096488319 
 6030000   0.09703498 
 6040000  0.098069511 
 6050000  0.090332127 
 6060000   0.10493322 
 6070000   0.10696233 
 6080000   0.11228427 
 6090000  0.094615872 
 6100000  0.095821231 
 6110000   0.10510198 
 6120000  0.091768606 
 6130000   0.10351731 
 6140000   0.10083085 
 6150000   0.11617163 
 6160000   0.10591012 
 6170000   0.11103081 
 6180000  0.091199386 
 6190000   0.11484205 
 6200000   0.10310273 
 6210000  0.096041122 
 6220000  0.094063127 
 6230000   0.10416765 
 6240000   0.10213534 
 6250000  0.099083266 
 6260000  0.090735612 
 6270000   0.08782726 
 6280000   0.10327567 
 6290000    0.1127598 
 6300000   0.10283276 
 6310000   0.11038789 
 6320000   0.10622061 
 6330000  0.097338671 
 6340000   0.10587376 
 6350000   0.08708269 
 6360000  0.099363193 
 6370000   0.11564236 
 6380000   0.10067559 
 6390000   0.10188988 
 6400000  0.096924655 
 6410000   0.10855762 
 6420000  0.088533913 
 6430000   0.10218153 
 6440000  0.093474849 
 6450000   0.11040743 
 6460000  0.089262249 
 6470000   0.10769188 
 6480000  0.096350012 
 6490000    0.1082415 
 6500000    0.1006987 
 6510000   0.10912204 
 6520000  0.092043294 
 6530000  0.094741836 
 6540000   0.10726477 
 6550000  0.099962782 
 6560000    0.1077002 
 6570000   0.11331543 
 6580000  0.098791337 
 6590000    0.1045898 
 6600000   0.10016603 
 6610000   0.10409364 
 6620000  0.094344183 
 6630000  0.099270051 
 6640000  0.095044028 
 6650000  0.097294499 
 6660000  0.097856622 
 6670000  0.098686769 
 6680000   0.11316452 
 6690000  0.096862701 
 6700000   0.10697604 
 6710000   0.10784746 
 6720000   0.10427044 
 6730000    0.1102242 
 6740000  0.099434547 
 6750000  0.091222478 
 6760000  0.098552425 
 6770000  0.098545094 
 6780000   0.10318059 
 6790000   0.10712462 
 6800000   0.10681488 
 6810000  0.093879741 
 6820000  0.095344084 
 6830000   0.10047248 
 6840000  0.097939887 
 6850000  0.094343166 
 6860000   0.10410827 
 6870000   0.10662448 
 6880000  0.091421405 
 6890000  0.099271798 
 6900000  0.096056064 
 6910000   0.10620291 
 6920000   0.10209227 
 6930000  0.094433185 
 6940000   0.10603549 
 6950000  0.099294651 
 6960000  0.095698753 
 6970000  0.098390201 
 6980000  0.096452141 
 6990000  0.086677752 
 7000000  0.096757758 
 7010000   0.11055825 
 7020000  0.097514563 
 7030000  0.092072819 
 7040000  0.097515967 
 7050000   0.10438189 
 7060000   0.09875638 
 7070000  0.097008213 
 7080000   0.10450293 
 7090000   0.10472046 
 7100000   0.10193062 
 7110000  0.095250337 
 7120000   0.11496586 
 7130000   0.10905071 
 7140000  0.088154382 
 7150000   0.10948738 
 7160000  0.092373443 
 7170000   0.10157449 
 7180000  0.095803722 
 7190000   0.10241467 
 7200000  0.090767301 
 7210000  0.084316863 
 7220000  0.091847959 
 7230000    0.1071521 
 7240000   0.09354551 
 7250000    0.1010564 
 7260000  0.099880165 
 7270000  0.096190972 
 7280000   0.10109011 
 7290000   0.10722635 
 7300000   0.10094927 
 7310000   0.10749493 
 7320000  0.095003071 
 7330000    0.1050972 
 7340000  0.094875215 
 7350000   0.10225131 
 7360000    0.0883039 
 7370000   0.10626388 
 7380000  0.099186243 
 7390000  0.095496577 
 7400000  0.087059178 
 7410000   0.11053394 
 7420000  0.097638768 
 7430000   0.10255219 
 7440000  0.095257869 
 7450000   0.10614991 
 7460000  0.098186858 
 7470000  0.097422099 
 7480000  0.098493183 
 7490000   0.10068933 
 7500000   0.10171155 
 7510000  0.097229388 
 7520000  0.099330295 
 7530000   0.10943765 
 7540000   0.10558438 
 7550000   0.09525399 
 7560000  0.096706662 
 7570000   0.09876415 
 7580000   0.10487184 
 7590000   0.10117546 
 7600000  0.092746318 
 7610000   0.10845128 
 7620000  0.098180847 
 7630000   0.10650532 
 7640000  0.090427367 
 7650000  0.096253114 
 7660000   0.10487627 
 7670000   0.10206638 
 7680000   0.10653246 
 7690000   0.10450487 
 7700000   0.10369618 
 7710000  0.093697655 
 7720000  0.092971159 
 7730000   0.11109145 
 7740000  0.095180363 
 7750000   0.10109869 
 7760000   0.10058503 
 7770000  0.094477691 
 7780000  0.095940922 
 7790000    0.1042247 
 7800000   0.10149372 
 7810000   0.11521775 
 7820000  0.096038353 
 7830000   0.10330768 
 7840000  0.093905437 
 7850000   0.11099201 
 7860000  0.098794187 
 7870000   0.10300269 
 7880000   0.10846702 
 7890000    0.0921796 
 7900000  0.099121326 
 7910000   0.10172265 
 7920000    0.1051134 
 7930000   0.10355354 
 7940000  0.099885361 
 7950000   0.10058065 
 7960000   0.10299759 
 7970000  0.092223907 
 7980000   0.10353164 
 7990000  0.094245619 
 8000000   0.10216781 
 8010000  0.094690805 
 8020000   0.10410707 
 8030000  0.094463613 
 8040000   0.10136457 
 8050000   0.10152707 
 8060000  0.084334747 
 8070000  0.099733271 
 8080000  0.099917279 
 8090000  0.087075772 
 8100000   0.11014461 
 8110000   0.10316983 
 8120000   0.10015896 
 8130000   0.10335145 
 8140000   0.10059163 
 8150000  0.097554635 
 8160000    0.1059518 
 8170000   0.10067608 
 8180000  0.091251154 
 8190000  0.096090584 
 8200000   0.10421413 
 8210000  0.096807329 
 8220000  0.098704365 
 8230000   0.09777572 
 8240000  0.096794229 
 8250000    0.1004547 
 8260000   0.10700554 
 8270000   0.10214602 
 8280000  0.094113521 
 8290000     0.104048 
 8300000  0.094431801 
 8310000   0.10670638 
 8320000   0.10216941 
 8330000   0.11048354 
 8340000   0.09247663 
 8350000  0.099045012 
 8360000   0.11105367 
 8370000  0.097675906 
 8380000   0.10264999 
 8390000  0.093352061 
 8400000  0.099503661 
 8410000  0.098197687 
 8420000  0.099670899 
 8430000  0.095539676 
 8440000  0.095431016 
 8450000   0.10731574 
 8460000   0.09492289 
 8470000  0.088979975 
 8480000    0.1025833 
 8490000    0.1160667 
 8500000   0.11204485 
 8510000  0.098684409 
 8520000   0.10535655 
 8530000   0.10658636 
 8540000   0.10941373 
 8550000   0.10178293 
 8560000  0.092688777 
 8570000    0.1093802 
 8580000   0.10517738 
 8590000  0.098979035 
 8600000   0.10797557 
 8610000   0.10564202 
 8620000   0.10592027 
 8630000   0.08829922 
 8640000   0.11283998 
 8650000   0.10397405 
 8660000   0.10846989 
 8670000  0.097177192 
 8680000  0.097689005 
 8690000   0.10346177 
 8700000  0.089328199 
 8710000  0.095530982 
 8720000   0.10129642 
 8730000   0.10237447 
 8740000  0.099418101 
 8750000   0.10733604 
 8760000  0.094172757 
 8770000   0.10286537 
 8780000  0.097435523 
 8790000   0.10716057 
 8800000    0.0964793 
 8810000  0.099617136 
 8820000   0.10441408 
 8830000    0.1001889 
 8840000  0.097221945 
 8850000   0.10690825 
 8860000   0.11130875 
 8870000  0.099683144 
 8880000   0.10018666 
 8890000   0.10285348 
 8900000   0.10831247 
 8910000   0.10017244 
 8920000   0.10027886 
 8930000  0.095994609 
 8940000     0.104814 
 8950000   0.10062965 
 8960000  0.098859706 
 8970000  0.092394575 
 8980000  0.096879366 
 8990000  0.094837619 
 9000000   0.10949566 
 9010000  0.094930874 
 9020000   0.10387512 
 9030000  0.093402542 
 9040000   0.10248288 
 9050000  0.098508677 
 9060000  0.096812188 
 9070000   0.10057178 
 9080000  0.098318794 
 9090000  0.094826788 
 9100000  0.095174023 
 9110000  0.093546759 
 9120000  0.094969779 
 9130000  0.097617373 
 9140000  0.095821021 
 9150000  0.098363853 
 9160000   0.08945795 
 9170000  0.089841457 
 9180000  0.089423199 
 9190000  0.094051481 
 9200000    0.1038929 
 9210000   0.10548928 
 9220000   0.11488099 
 9230000  0.095099448 
 9240000  0.097150268 
 9250000   0.12368389 
 9260000   0.10234618 
 9270000   0.10814472 
 9280000   0.10241941 
 9290000  0.094765632 
 9300000  0.096958792 
 9310000  0.095091975 
 9320000   0.10442019 
 9330000   0.10307001 
 9340000   0.10537123 
 9350000    0.1167023 
 9360000   0.10391569 
 9370000   0.11140327 
 9380000  0.090732694 
 9390000   0.10322217 
 9400000   0.11386693 
 9410000  0.094003227 
 9420000  0.092364951 
 9430000  0.098532026 
 9440000  0.098929135 
 9450000  0.098241514 
 9460000   0.10235806 
 9470000   0.10175664 
 9480000   0.11053829 
 9490000  0.092894053 
 9500000   0.10119502 
 9510000  0.094907147 
 9520000  0.093804567 
 9530000   0.10323505 
 9540000   0.10097468 
 9550000   0.10048858 
 9560000   0.10581907 
 9570000  0.095846461 
 9580000   0.10022169 
 9590000   0.10864313 
 9600000  0.094841561 
 9610000     0.102618 
 9620000  0.094474646 
 9630000   0.10354353 
 9640000   0.10330399 
 9650000   0.10029109 
 9660000   0.10724327 
 9670000   0.10592215 
 9680000  0.090534599 
 9690000   0.10461089 
 9700000   0.10451164 
 9710000  0.095449653 
 9720000    0.1029238 
 9730000  0.096216183 
 9740000   0.09795633 
 9750000   0.10225244 
 9760000  0.096431248 
 9770000   0.10039919 
 9780000   0.10759093 
 9790000  0.098224257 
 9800000   0.11372853 
 9810000  0.094469781 
 9820000   0.10449685 
 9830000  0.099238553 
 9840000  0.087734858 
 9850000  0.093313362 
 9860000   0.11394793 
 9870000   0.11356076 
 9880000  0.097874958 
 9890000    0.1165783 
 9900000  0.091236458 
 9910000   0.10342726 
 9920000  0.098616975 
 9930000   0.12013259 
 9940000  0.095522126 
 9950000  0.094157266 
 9960000   0.10194495 
 9970000  0.095211399 
 9980000    0.1092697 
 9990000   0.10569423 
10000000  0.095975546 
10010000   0.10395898 
10020000   0.10905252 
10030000   0.10169115 
10040000   0.10515441 
10050000   0.09618268 
10060000  0.090981214 
10070000  0.095604283 
10080000   0.10440332 
10090000   0.10302022 
10100000  0.098422464 
10110000   0.10678249 
10120000   0.10694995 
10130000  0.098181863 
10140000   0.10847903 
10150000  0.091710085 
10160000  0.099045496 
10170000     0.104032 
10180000  0.099518265 
10190000  0.096982503 
10200000   0.10122679 
10210000  0.084978774 
10220000  0.099724327 
10230000   0.10206638 
10240000   0.10236159 
10250000   0.10733342 
10260000  0.094797867 
10270000  0.093990083 
10280000   0.10198354 
10290000  0.096552661 
10300000   0.10301551 
10310000   0.11180511 
10320000  0.094169965 
10330000   0.10665513 
10340000  0.087095269 
10350000  0.093118851 
10360000  0.093809149 
10370000   0.10733871 
10380000   0.10328884 
10390000  0.092854294 
10400000  0.097164896 
10410000  0.091078096 
10420000   0.10474492 
10430000   0.10388842 
10440000   0.10063397 
10450000   0.10949447 
10460000   0.10009189 
10470000  0.095952709 
10480000  0.086415347 
10490000  0.097740855 
10500000  0.096291679 
10510000    0.1002386 
10520000  0.094829044 
10530000   0.12570013 
10540000  0.097733751 
10550000   0.10216886 
10560000   0.10219233 
10570000    0.1042463 
10580000   0.10913243 
10590000   0.11161813 
10600000   0.08867471 
10610000  0.099835413 
10620000   0.10499162 
10630000  0.097786735 
10640000   0.10350511 
10650000   0.11208383 
10660000   0.10431399 
10670000   0.10317448 
10680000   0.11058543 
10690000   0.10742661 
10700000   0.10383544 
10710000   0.11538046 
10720000  0.098709559 
10730000   0.11062898 
10740000   0.09668664 
10750000   0.10347048 
10760000    0.1031554 
10770000  0.099907707 
10780000   0.11644814 
10790000   0.09296459 
10800000  0.099845574 
10810000  0.098403268 
10820000  0.098454076 
10830000  0.082837383 
10840000  0.093112417 
10850000   0.09564545 
10860000   0.10663782 
10870000   0.10951425 
10880000  0.097778457 
10890000  0.096254582 
10900000   0.10494565 
10910000  0.088461914 
10920000   0.10530579 
10930000   0.10141746 
10940000   0.10038582 
10950000  0.088849121 
10960000  0.092373383 
10970000  0.094967547 
10980000    0.1035672 
10990000  0.090799311 
11000000   0.10118014 
11010000   0.10726137 
11020000  0.093731467 
11030000  0.093849992 
11040000  0.097722813 
11050000   0.11284095 
11060000  0.097139372 
11070000   0.10590503 
11080000   0.10450572 
11090000  0.090384328 
11100000   0.10423449 
11110000    0.1075101 
11120000  0.098494613 
11130000   0.10039105 
11140000  0.092915238 
11150000   0.10877833 
11160000   0.10306351 
11170000   0.08636638 
11180000   0.10186666 
11190000   0.10205375 
11200000   0.10655978 
11210000   0.11311975 
11220000  0.087953366 
11230000  0.099810571 
11240000   0.10760823 
11250000   0.10124917 
11260000    0.1078854 
11270000  0.096661141 
11280000   0.10384785 
11290000  0.095335746 
11300000   0.10642907 
11310000   0.10385857 
11320000   0.10142397 
11330000  0.099718501 
11340000   0.10252251 
11350000    0.1094174 
11360000   0.10048345 
11370000  0.094443807 
11380000  0.095732783 
11390000   0.11466555 
11400000   0.10597886 
11410000   0.09381219 
11420000   0.10234141 
11430000  0.087787874 
11440000   0.10275396 
11450000   0.10358623 
11460000  0.095408101 
11470000   0.10751354 
11480000   0.09913075 
11490000   0.11072864 
11500000  0.087469339 
11510000   0.10113975 
11520000   0.10772383 
11530000  0.090419427 
11540000  0.093919382 
11550000   0.11113841 
11560000    0.1029117 
11570000  0.090549834 
11580000  0.095989086 
11590000  0.090835227 
11600000   0.10009638 
11610000   0.10177172 
11620000  0.095223355 
11630000   0.10739303 
11640000    0.1024196 
11650000   0.10756566 
11660000   0.10116683 
11670000  0.095856956 
11680000   0.10346239 
11690000   0.10039737 
11700000  0.092630164 
11710000  0.093266516 
11720000   0.10261067 
11730000   0.10042299 
11740000  0.091540004 
11750000   0.10979224 
11760000  0.094693879 
11770000   0.10549684 
11780000  0.098290738 
11790000   0.10507053 
11800000    0.1121782 
11810000  0.092594914 
11820000  0.096813205 
11830000   0.11091503 
11840000  0.097265443 
11850000  0.094340929 
11860000   0.09355378 
11870000   0.10555111 
11880000  0.095443204 
11890000  0.086367614 
11900000   0.09673811 
11910000   0.12039294 
11920000   0.10641835 
11930000  0.096103884 
11940000  0.099624955 
11950000  0.090580335 
11960000   0.10622322 
11970000  0.097487888 
11980000   0.10353755 
11990000    0.1069271 
12000000   0.10319045 
12010000   0.10427532 
12020000   0.11602207 
12030000    0.1052464 
12040000  0.092905593 
12050000  0.093286607 
12060000    0.1051006 
12070000  0.096669744 
12080000  0.099554373 
12090000  0.097854732 
12100000  0.094999351 
12110000  0.096283692 
12120000  0.094945508 
12130000   0.10395484 
12140000   0.08754048 
12150000  0.095576575 
12160000   0.10488266 
12170000     0.104026 
12180000  0.092614811 
12190000  0.094254758 
12200000  0.096986126 
12210000  0.096932243 
12220000   0.10181763 
12230000   0.10630194 
12240000   0.10407019 
12250000  0.095604833 
12260000  0.097191218 
12270000   0.11165431 
12280000  0.099637822 
12290000  0.085036432 
12300000  0.098106973 
12310000   0.10802127 
12320000   0.11539114 
12330000   0.11218673 
12340000   0.10548555 
12350000   0.11064579 
12360000  0.099475553 
12370000  0.097605582 
12380000   0.10363212 
12390000  0.097802726 
12400000   0.09382355 
12410000     0.103384 
12420000  0.090042627 
12430000   0.10014113 
12440000   0.10273225 
12450000  0.091208489 
12460000  0.083835685 
12470000   0.10956881 
12480000   0.10315651 
12490000  0.094455065 
12500000   0.10013927 
12510000  0.095607853 
12520000  0.096317794 
12530000   0.10223462 
12540000  0.099876134 
12550000  0.095077273 
12560000   0.10575875 
12570000   0.10894902 
12580000  0.094569401 
12590000  0.096497487 
12600000   0.10507447 
12610000   0.11192715 
12620000   0.10970845 
12630000  0.098761295 
12640000   0.11691202 
12650000   0.10382902 
12660000  0.099633678 
12670000   0.11336281 
12680000  0.090911162 
12690000  0.096949182 
12700000   0.10198852 
12710000  0.098764315 
12720000  0.093365773 
12730000  0.096182175 
12740000  0.096729902 
12750000  0.098561896 
12760000     0.100807 
12770000  0.092743847 
12780000   0.10515351 
12790000   0.11311024 
12800000   0.10448964 
12810000  0.098776301 
12820000  0.089350541 
12830000   0.10751969 
12840000   0.10240794 
12850000   0.10551501 
12860000   0.10610867 
12870000  0.098537616 
12880000   0.10097544 
12890000  0.090697578 
12900000   0.10125816 
12910000   0.11732365 
12920000   0.10790709 
12930000  0.099785115 
12940000   0.10292339 
12950000  0.093935317 
12960000   0.10701892 
12970000   0.10389004 
12980000  0.096231048 
12990000   0.10628829 
13000000   0.11151562 
13010000  0.092893471 
13020000   0.10608616 
13030000  0.096514313 
13040000   0.10279591 
13050000  0.097490088 
13060000   0.09073085 
13070000  0.098313646 
13080000  0.099377443 
13090000  0.094995249 
13100000  0.092325223 
13110000  0.091571092 
13120000   0.10009792 
13130000   0.10147609 
13140000   0.10023926 
13150000   0.10019923 
13160000  0.093930521 
13170000   0.10719963 
13180000  0.095510862 
13190000   0.10374965 
13200000   0.10580383 
13210000  0.098824436 
13220000   0.10788078 
13230000   0.10252753 
13240000  0.092340636 
13250000   0.09251415 
13260000  0.093921134 
13270000   0.09510667 
13280000  0.096488236 
13290000   0.10924826 
13300000  0.092007558 
13310000    0.1040304 
13320000  0.087306276 
13330000   0.10222347 
13340000   0.10850166 
13350000   0.10814737 
13360000  0.094989034 
13370000  0.090860137 
13380000  0.095195648 
13390000  0.097673935 
13400000  0.091604896 
13410000  0.096025915 
13420000   0.10836628 
13430000   0.10737442 
13440000   0.10381232 
13450000  0.094542112 
13460000  0.099958346 
13470000  0.097439939 
13480000  0.095911062 
13490000   0.10228306 
13500000  0.098664662 
13510000   0.10315394 
13520000   0.10680122 
13530000  0.097286179 
13540000  0.097705869 
13550000   0.10116188 
13560000   0.10596324 
13570000   0.10144559 
13580000   0.10413436 
13590000   0.10313263 
13600000   0.10651603 
13610000   0.10008992 
13620000   0.10059861 
13630000  0.092434287 
13640000  0.092355035 
13650000   0.10671115 
13660000  0.098249736 
13670000   0.10230535 
13680000  0.094336104 
13690000  0.090232833 
13700000   0.10065612 
13710000   0.09620081 
13720000  0.094533625 
13730000   0.10400961 
13740000  0.089793885 
13750000  0.099617305 
13760000  0.096453625 
13770000  0.095698125 
13780000   0.10061205 
13790000  0.094046697 
13800000   0.10897468 
13810000  0.094262819 
13820000  0.095009941 
13830000   0.10646619 
13840000  0.096236309 
13850000    0.1029081 
13860000  0.096298923 
13870000   0.10849367 
13880000   0.10840044 
13890000  0.099904546 
13900000   0.10730685 
13910000   0.09368513 
13920000  0.095285639 
13930000  0.095968439 
13940000   0.11219902 
13950000    0.1009192 
13960000  0.098127955 
13970000   0.10664309 
13980000  0.088209629 
13990000  0.098152105 
14000000  0.092098094 
14010000   0.10485257 
14020000    0.1024347 
14030000  0.099679963 
14040000  0.088819028 
14050000  0.096517902 
14060000   0.10608412 
14070000   0.10488737 
14080000    0.1138843 
14090000  0.094310038 
14100000   0.10328489 
14110000  0.098456059 
14120000   0.10569049 
14130000  0.097722528 
14140000  0.094266121 
14150000  0.096284383 
14160000  0.093037824 
14170000  0.094666722 
14180000  0.092315226 
14190000   0.10906167 
14200000   0.10276192 
14210000   0.10440797 
14220000  0.094169288 
14230000   0.10646445 
14240000   0.10996104 
14250000   0.10261054 
14260000   0.10021794 
14270000  0.098279655 
14280000   0.10080236 
14290000   0.11322254 
14300000  0.096040485 
14310000   0.10503979 
14320000    0.1040548 
14330000   0.10485188 
14340000  0.098909563 
14350000  0.098094968 
14360000   0.12217327 
14370000   0.10353688 
14380000   0.10312275 
14390000  0.097149301 
14400000  0.099169842 
14410000    0.0948359 
14420000  0.095280013 
14430000   0.10069934 
14440000  0.098737879 
14450000   0.10674703 
14460000  0.095513185 
14470000   0.10031384 
14480000   0.11007897 
14490000   0.10439516 
14500000   0.10605755 
14510000  0.093254717 
14520000  0.098343463 
14530000   0.10800694 
14540000  0.099852213 
14550000   0.10118782 
14560000   0.10073118 
14570000  0.095755153 
14580000   0.10179523 
14590000    0.1001646 
14600000   0.11459717 
14610000   0.10024704 
14620000   0.10043812 
14630000   0.09593506 
14640000   0.10869472 
14650000    0.1118563 
14660000   0.10377056 
14670000   0.11095507 
14680000   0.10488694 
14690000  0.096865616 
14700000    0.1115526 
14710000   0.09833355 
14720000  0.089251002 
14730000  0.098154002 
14740000    0.1029528 
14750000  0.095374969 
14760000   0.10481562 
14770000   0.11034684 
14780000   0.10139663 
14790000   0.10415454 
14800000  0.098609226 
14810000  0.098940216 
14820000  0.098050217 
14830000  0.092582979 
14840000   0.10010785 
14850000   0.10181026 
14860000   0.11225137 
14870000   0.10067333 
14880000  0.094747016 
14890000  0.095374699 
14900000  0.088205629 
14910000    0.1067812 
14920000  0.098636059 
14930000  0.098238328 
14940000   0.12079501 
14950000    0.1070543 
14960000  0.096413299 
14970000  0.099612069 
14980000   0.10501936 
14990000  0.097381196 
15000000   0.10443327 
15010000   0.10168744 
15020000   0.09745439 
15030000   0.10209109 
15040000   0.10628949 
15050000   0.10616161 
15060000   0.10075871 
15070000   0.10573699 
15080000  0.097380448 
15090000   0.10698495 
15100000  0.095987392 
15110000  0.098243351 
15120000  0.095142563 
15130000   0.11574522 
15140000   0.11089047 
15150000   0.10483627 
15160000  0.098953967 
15170000   0.11304681 
15180000    0.1074033 
15190000   0.10412668 
15200000  0.090874808 
15210000  0.097656012 
15220000   0.10639824 
15230000  0.092033995 
15240000  0.094944043 
15250000   0.10437703 
15260000   0.10842676 
15270000  0.093338418 
15280000   0.10335567 
15290000  0.098798064 
15300000  0.099807092 
15310000   0.10638414 
15320000  0.092065862 
15330000  0.096497441 
15340000   0.10224687 
15350000  0.099273415 
15360000   0.10306595 
15370000  0.094017084 
15380000   0.10187858 
15390000   0.10155353 
15400000   0.10256331 
15410000  0.098835198 
15420000   0.10314815 
15430000   0.10025284 
15440000  0.092246517 
15450000   0.10266184 
15460000   0.10705526 
15470000   0.10151043 
15480000   0.09533479 
15490000  0.097982275 
15500000   0.10167196 
15510000   0.11032012 
15520000   0.10743586 
15530000   0.10090249 
15540000   0.09449118 
15550000   0.11485665 
15560000  0.098602627 
15570000   0.11398029 
15580000  0.099544844 
15590000   0.10320376 
15600000    0.1027194 
15610000   0.10103848 
15620000   0.10687928 
15630000   0.09327044 
15640000  0.091799767 
15650000  0.095130044 
15660000  0.097145753 
15670000  0.097975507 
15680000  0.096721512 
15690000  0.095172259 
15700000  0.091699076 
15710000   0.10632822 
15720000  0.096868042 
15730000  0.099516418 
15740000  0.093116404 
15750000    0.1100623 
15760000  0.098036574 
15770000  0.095159262 
15780000   0.10108508 
15790000   0.11195217 
15800000   0.10813556 
15810000   0.10412226 
15820000   0.10426746 
15830000   0.10822562 
15840000  0.096214211 
15850000   0.10490138 
15860000  0.095274854 
15870000   0.11089101 
15880000   0.10795591 
15890000   0.10179726 
15900000  0.094237924 
15910000  0.096317737 
15920000  0.095329709 
15930000   0.09916249 
15940000   0.10117791 
15950000  0.096304289 
15960000   0.10541016 
15970000    0.1058998 
15980000   0.10326585 
15990000   0.11878497 
16000000   0.10386062 
16010000   0.10394602 
16020000   0.10430452 
16030000   0.11182966 
16040000   0.10612155 
16050000   0.11096461 
16060000  0.089354806 
16070000  0.099356402 
16080000  0.097926229 
16090000   0.10264477 
16100000   0.10071548 
16110000   0.10620157 
16120000   0.10847776 
16130000  0.096458081 
16140000   0.10684974 
16150000  0.088376281 
16160000  0.087962689 
16170000   0.10325116 
16180000   0.10326336 
16190000  0.094663687 
16200000  0.097437216 
16210000    0.0974411 
16220000   0.11162309 
16230000   0.11354473 
16240000  0.091572992 
16250000  0.098702338 
16260000  0.099669409 
16270000   0.09757446 
16280000   0.10511649 
16290000  0.092998123 
16300000  0.093228233 
16310000   0.10286464 
16320000   0.10309786 
16330000  0.094573179 
16340000  0.099007157 
16350000   0.10551238 
16360000  0.092150423 
16370000   0.10035148 
16380000  0.092605355 
16390000  0.092727601 
16400000   0.10133064 
16410000  0.096416174 
16420000   0.10721225 
16430000   0.10414678 
16440000   0.10499173 
16450000  0.097509001 
16460000   0.10807796 
16470000  0.094079642 
16480000   0.10597206 
16490000   0.11134442 
16500000  0.094139169 
16510000  0.099915876 
16520000  0.091388535 
16530000   0.11203253 
16540000  0.097792683 
16550000  0.095542695 
16560000  0.084974051 
16570000  0.092355078 
16580000   0.10213854 
16590000   0.10633301 
16600000  0.096640968 
16610000  0.098609076 
16620000    0.1010474 
16630000   0.10059835 
16640000  0.092574286 
16650000  0.092779684 
16660000   0.10288911 
16670000   0.12148121 
16680000   0.10797345 
16690000    0.1109209 
16700000  0.089157598 
16710000   0.09936038 
16720000  0.093469065 
16730000   0.10592069 
16740000   0.10717789 
16750000   0.10344339 
16760000   0.10154051 
16770000  0.093462345 
16780000   0.10139631 
16790000   0.11409963 
16800000  0.098274959 
16810000   0.11214576 
16820000  0.089222398 
16830000   0.10814417 
16840000    0.0952587 
16850000   0.10893844 
16860000   0.10038798 
16870000  0.094555744 
16880000  0.098411321 
16890000   0.09512513 
16900000   0.10887203 
16910000   0.10814188 
16920000   0.11847868 
16930000   0.10617333 
16940000   0.10134043 
16950000   0.11272241 
16960000  0.088693835 
16970000  0.097335007 
16980000  0.094205346 
16990000  0.098521758 
17000000   0.12110975 
17010000   0.10263724 
17020000  0.099802286 
17030000   0.11283263 
17040000  0.098363306 
17050000  0.091950395 
17060000  0.094404751 
17070000   0.10200302 
17080000   0.10297315 
17090000   0.10765176 
17100000   0.10138447 
17110000   0.10228237 
17120000   0.11426436 
17130000  0.093717906 
17140000  0.099577189 
17150000  0.094212855 
17160000   0.10272171 
17170000    0.0963116 
17180000   0.10015238 
17190000   0.10110958 
17200000  0.092309241 
17210000   0.11120817 
17220000   0.10948226 
17230000  0.090837844 
17240000  0.098183485 
17250000   0.10397145 
17260000  0.099413833 
17270000   0.10493473 
17280000  0.095109602 
17290000  0.093661895 
17300000   0.10325131 
17310000   0.10583831 
17320000   0.10605047 
17330000  0.081289814 
17340000  0.092183874 
17350000   0.11021817 
17360000   0.10378492 
17370000   0.11364116 
17380000    0.1026682 
17390000  0.096830526 
17400000   0.11271864 
17410000  0.096187679 
17420000  0.094978319 
17430000  0.099342097 
17440000  0.098890256 
17450000  0.097550504 
17460000  0.098474254 
17470000  0.097751672 
17480000  0.091183107 
17490000   0.10896149 
17500000  0.096376147 
17510000   0.10284919 
17520000   0.10522487 
17530000  0.096284196 
17540000  0.099533885 
17550000  0.097244011 
17560000  0.096424991 
17570000   0.09334579 
17580000   0.11266317 
17590000    0.1083644 
17600000   0.10855063 
17610000  0.095163886 
17620000   0.10018173 
17630000  0.098854326 
17640000   0.10757425 
17650000  0.099654278 
17660000   0.09393444 
17670000   0.10186001 
17680000  0.090942588 
17690000  0.096066285 
17700000  0.088584795 
17710000  0.099808806 
17720000   0.10198238 
17730000   0.10150816 
17740000  0.096262757 
17750000  0.097708626 
17760000  0.095131848 
17770000   0.10463701 
17780000   0.09405674 
17790000   0.10559895 
17800000   0.10258916 
17810000   0.10171831 
17820000  0.096620477 
17830000   0.10857551 
17840000   0.10089646 
17850000  0.096470348 
17860000   0.10012181 
17870000  0.099262621 
17880000   0.10993378 
17890000   0.10627684 
17900000  0.094930112 
17910000   0.10059322 
17920000  0.098741505 
17930000  0.093733358 
17940000  0.098724464 
17950000  0.097756455 
17960000   0.10690796 
17970000   0.10173988 
17980000  0.092385417 
17990000  0.098316767 
18000000   0.11202698 
18010000    0.1049927 
18020000   0.10559286 
18030000   0.10043117 
18040000  0.099720104 
18050000   0.10130322 
18060000  0.096755963 
18070000   0.11477106 
18080000  0.097863195 
18090000    0.1047105 
18100000   0.10009078 
18110000  0.095081076 
18120000   0.11088327 
18130000  0.098404347 
18140000   0.10406982 
18150000  0.097065098 
18160000   0.10273624 
18170000  0.097588803 
18180000   0.10603538 
18190000   0.10040616 
18200000   0.10989805 
18210000   0.10312883 
18220000   0.11630812 
18230000  0.098773653 
18240000  0.099125805 
18250000   0.10336437 
18260000   0.10492014 
18270000   0.10351255 
18280000   0.11092149 
18290000   0.10661815 
18300000  0.096175722 
18310000  0.098188183 
18320000   0.11312604 
18330000  0.093444176 
18340000   0.10303642 
18350000  0.093035669 
18360000   0.10881651 
18370000   0.09581103 
18380000   0.10087795 
18390000  0.099861663 
18400000  0.099115455 
18410000   0.10378199 
18420000  0.091684913 
18430000  0.096651316 
18440000   0.10407866 
18450000   0.10369748 
18460000   0.10687647 
18470000  0.095448023 
18480000  0.092428063 
18490000  0.098829338 
18500000   0.08999043 
18510000  0.094553708 
18520000  0.097556814 
18530000   0.10296576 
18540000  0.095020847 
18550000  0.096679631 
18560000   0.10505289 
18570000   0.11409729 
18580000  0.096408383 
18590000   0.10328012 
18600000  0.093781047 
18610000   0.11136122 
18620000   0.10435325 
18630000  0.095607904 
18640000   0.10515256 
18650000  0.094673317 
18660000  0.090725304 
18670000  0.098825789 
18680000   0.10899255 
18690000  0.093102066 
18700000  0.099181581 
18710000    0.1081802 
18720000   0.10348085 
18730000   0.10079551 
18740000  0.092868894 
18750000   0.11935052 
18760000   0.10078304 
18770000  0.091917059 
18780000  0.091887658 
18790000  0.098470495 
18800000  0.096777391 
18810000  0.088511348 
18820000   0.10611207 
18830000   0.10815296 
18840000    0.0992252 
18850000   0.11203635 
18860000  0.088627575 
18870000  0.098744285 
18880000  0.099037092 
18890000   0.10936949 
18900000   0.11290051 
18910000   0.10577645 
18920000  0.098801842 
18930000  0.091405975 
18940000  0.096853072 
18950000   0.10069875 
18960000  0.089119236 
18970000    0.1009375 
18980000  0.085673525 
18990000  0.097716968 
19000000   0.10005425 
19010000  0.096315295 
19020000  0.096812966 
19030000   0.10440095 
19040000   0.11575673 
19050000  0.094415647 
19060000  0.096791412 
19070000  0.098972668 
19080000   0.11508182 
19090000   0.11171693 
19100000  0.094406836 
19110000  0.094946683 
19120000  0.095045594 
19130000   0.10698901 
19140000   0.10017075 
19150000  0.090610279 
19160000    0.1043204 
19170000   0.10918551 
19180000  0.093032782 
19190000   0.11501733 
19200000  0.099517833 
19210000   0.10937853 
19220000  0.086244926 
19230000   0.10364839 
19240000  0.099643103 
19250000   0.10705458 
19260000  0.089700839 
19270000   0.10366453 
19280000    0.1104645 
19290000   0.10508892 
19300000   0.10118563 
19310000  0.098477628 
19320000   0.10321344 
19330000   0.10927228 
19340000  0.088618624 
19350000  0.099947832 
19360000  0.095292501 
19370000   0.09559947 
19380000  0.092314529 
19390000  0.095101354 
19400000  0.094486354 
19410000  0.084667433 
19420000  0.097834205 
19430000   0.11702475 
19440000   0.10023995 
19450000  0.099308479 
19460000   0.10469283 
19470000   0.10397809 
19480000  0.095714526 
19490000  0.096746517 
19500000   0.10838585 
19510000  0.098150512 
19520000  0.097736094 
19530000  0.088981903 
19540000    0.1136895 
19550000   0.10149989 
19560000  0.093486505 
19570000   0.10592815 
19580000  0.098903807 
19590000   0.09041273 
19600000   0.10835251 
19610000   0.10837954 
19620000   0.10535878 
19630000   0.10111556 
19640000   0.10751585 
19650000  0.098922233 
19660000  0.087015925 
19670000    0.1023701 
19680000   0.11066102 
19690000    0.1019805 
19700000   0.10397578 
19710000   0.10034775 
19720000   0.10598238 
19730000    0.1102212 
19740000   0.10131441 
19750000   0.11636903 
19760000   0.10450953 
19770000   0.11134094 
19780000   0.10502474 
19790000   0.09321385 
19800000   0.10127573 
19810000  0.098981221 
19820000   0.10471497 
19830000   0.11387067 
19840000  0.099284001 
19850000  0.095601129 
19860000  0.099642967 
19870000   0.10043877 
19880000   0.11046286 
19890000   0.10803197 
19900000   0.11099303 
19910000   0.10099072 
19920000   0.10270491 
19930000  0.089208303 
19940000  0.097386897 
19950000   0.10160412 
19960000   0.10316618 
19970000   0.10745749 
19980000   0.10260736 
19990000   0.10600583 
20000000   0.10221165 
20010000   0.11566863 
20020000  0.097300848 
20030000    0.1067746 
20040000   0.10800617 
20050000  0.096471053 
20060000  0.095636904 
20070000   0.10023154 
20080000   0.10164189 
20090000   0.11041813 
20100000   0.10662043 
20110000  0.097490187 
20120000   0.10366971 
20130000   0.10702617 
20140000   0.09614825 
20150000   0.10551449 
20160000  0.092447915 
20170000  0.095128429 
20180000   0.11313528 
20190000   0.10477156 
20200000  0.087564703 
20210000  0.089727521 
20220000   0.11130639 
20230000  0.092612844 
20240000    0.1026789 
20250000   0.10124089 
20260000    0.1118913 
20270000  0.093283016 
20280000  0.091572217 
20290000  0.098467337 
20300000   0.10430958 
20310000   0.10499822 
20320000   0.10667659 
20330000   0.10295639 
20340000   0.10159467 
20350000   0.10651366 
20360000  0.097873448 
20370000    0.1003357 
20380000  0.094694854 
20390000   0.09432167 
20400000  0.096300229 
20410000   0.10540173 
20420000   0.10236943 
20430000  0.098222586 
20440000   0.10931063 
20450000   0.10557519 
20460000   0.10296585 
20470000   0.10123253 
20480000  0.090591925 
20490000  0.087732793 
20500000   0.10210727 
20510000  0.095464284 
20520000   0.11406093 
20530000  0.098984579 
20540000  0.094733237 
20550000   0.10031619 
20560000  0.095341758 
20570000  0.095413902 
20580000   0.10605969 
20590000   0.11683655 
20600000   0.10655069 
20610000   0.10339465 
20620000  0.097289172 
20630000   0.10502283 
20640000  0.094081996 
20650000   0.10211251 
20660000   0.09339634 
20670000   0.10016415 
20680000   0.10200264 
20690000   0.10874681 
20700000  0.097684474 
20710000    0.1002291 
20720000   0.10239201 
20730000   0.11265815 
20740000   0.10805447 
20750000  0.093657834 
20760000   0.10520463 
20770000   0.10264399 
20780000  0.094718196 
20790000  0.092950302 
20800000  0.099346759 
20810000  0.096040945 
20820000   0.10050653 
20830000   0.10404689 
20840000   0.11049618 
20850000   0.09165645 
20860000   0.10126186 
20870000  0.085913334 
20880000  0.096407426 
20890000   0.10473167 
20900000   0.10369142 
20910000  0.099358307 
20920000  0.097255446 
20930000  0.093512556 
20940000   0.11051964 
20950000   0.10262827 
20960000  0.091139937 
20970000    0.0992218 
20980000  0.093606231 
20990000  0.099022322 
21000000   0.10958769 
21010000   0.11002828 
21020000  0.097805076 
21030000  0.086441421 
21040000   0.10253714 
21050000  0.099827115 
21060000   0.10685414 
21070000  0.097442585 
21080000  0.099566594 
21090000    0.1110135 
21100000  0.096211887 
21110000  0.090948241 
21120000   0.10211665 
21130000  0.093545962 
21140000  0.095283856 
21150000   0.10054276 
21160000  0.090723465 
21170000   0.10360514 
21180000   0.10326676 
21190000    0.1008765 
21200000   0.10536034 
21210000   0.11038207 
21220000    0.1086847 
21230000   0.10892548 
21240000  0.093207727 
21250000   0.10536614 
21260000   0.10319548 
21270000    0.1042177 
21280000   0.10637431 
21290000   0.10777814 
21300000   0.09362136 
21310000   0.09020759 
21320000  0.095693052 
21330000   0.10274926 
21340000  0.092791821 
21350000   0.10750394 
21360000  0.097300075 
21370000   0.11033422 
21380000  0.097317214 
21390000   0.10298469 
21400000  0.097026818 
21410000  0.096546421 
21420000   0.10118168 
21430000    0.1053459 
21440000   0.10064598 
21450000   0.11597226 
21460000  0.099344262 
21470000    0.1050379 
21480000   0.11765037 
21490000   0.10059816 
21500000    0.1020647 
21510000   0.10247028 
21520000   0.10984013 
21530000  0.085471755 
21540000   0.10283579 
21550000   0.10010187 
21560000  0.092011592 
21570000   0.10339254 
21580000  0.097156438 
21590000  0.099186042 
21600000   0.10847861 
21610000    0.1103133 
21620000   0.10861734 
21630000  0.093029304 
21640000   0.11428704 
21650000  0.098734576 
21660000    0.1066835 
21670000  0.093859161 
21680000    0.1027729 
21690000  0.096858294 
21700000  0.098157525 
21710000  0.098616703 
21720000   0.10074784 
21730000   0.09117338 
21740000   0.10137532 
21750000   0.10431477 
21760000   0.11645656 
21770000  0.099439551 
21780000  0.092501861 
21790000  0.095618523 
21800000   0.10551605 
21810000   0.10217171 
21820000   0.11101607 
21830000   0.10399847 
21840000   0.10343334 
21850000   0.10153449 
21860000   0.11867842 
21870000  0.099982374 
21880000   0.10238535 
21890000   0.10543009 
21900000  0.094249293 
21910000   0.10100043 
21920000   0.09922617 
21930000    0.1160639 
21940000   0.10289022 
21950000  0.098977119 
21960000  0.093789607 
21970000    0.1073982 
21980000   0.09453537 
21990000  0.097846614 
22000000  0.092354909 
22010000   0.10635288 
22020000  0.092221453 
22030000  0.089796255 
22040000  0.095630328 
22050000  0.097149509 
22060000   0.10168419 
22070000  0.099463764 
22080000   0.10082296 
22090000   0.10669226 
22100000  0.093680515 
22110000  0.084568136 
22120000   0.10140589 
22130000   0.10287899 
22140000  0.095770664 
22150000  0.090924036 
22160000  0.099735768 
22170000  0.091865108 
22180000   0.11041539 
22190000  0.096378646 
22200000  0.099438188 
22210000   0.10422292 
22220000  0.091316754 
22230000   0.10158152 
22240000  0.088803714 
22250000  0.094407092 
22260000   0.10849813 
22270000  0.092157642 
22280000   0.10506011 
22290000   0.10856602 
22300000  0.096044598 
22310000   0.10554472 
22320000  0.099208351 
22330000   0.10187096 
22340000  0.097376546 
22350000   0.10671974 
22360000  0.097756892 
22370000    0.1211034 
22380000    0.1044202 
22390000   0.10509928 
22400000  0.092123821 
22410000  0.094579072 
22420000   0.11061089 
22430000  0.084975873 
22440000  0.094975761 
22450000   0.10955818 
22460000  0.097743527 
22470000  0.097191507 
22480000   0.10188742 
22490000  0.098203336 
22500000   0.10727415 
22510000   0.11089003 
22520000   0.10216034 
22530000    0.1013368 
22540000  0.095328947 
22550000   0.11288079 
22560000  0.091836789 
22570000  0.088306189 
22580000  0.097323027 
22590000   0.10695879 
22600000   0.10607405 
22610000   0.09363288 
22620000  0.092980121 
22630000   0.08419843 
22640000  0.096453669 
22650000  0.087919113 
22660000   0.10900567 
22670000  0.096573915 
22680000  0.097598503 
22690000    0.1108789 
22700000   0.10287712 
22710000  0.094689201 
22720000   0.10092959 
22730000  0.095271616 
22740000  0.092892302 
22750000  0.099474351 
22760000  0.089512163 
22770000   0.10177446 
22780000   0.09285386 
22790000  0.089720039 
22800000   0.10096244 
22810000   0.10066771 
22820000  0.093438664 
22830000  0.094585032 
22840000  0.088714231 
22850000  0.097567694 
22860000  0.092761573 
22870000  0.088651064 
22880000   0.10466829 
22890000  0.092096193 
22900000  0.096906873 
22910000  0.090453483 
22920000   0.10402126 
22930000  0.097438129 
22940000  0.085496705 
22950000  0.098668979 
22960000   0.10561606 
22970000   0.10643131 
22980000  0.099305484 
22990000  0.086591116 
23000000   0.10292165 
23010000   0.10663482 
23020000   0.10429792 
23030000   0.10393751 
23040000  0.093471185 
23050000  0.099889561 
23060000  0.099588824 
23070000   0.10944294 
23080000  0.098543906 
23090000  0.099288077 
23100000  0.090365153 
23110000   0.10408959 
23120000   0.09219947 
23130000   0.11027764 
23140000  0.095584319 
23150000  0.095363325 
23160000   0.10253425 
23170000  0.098150854 
23180000   0.10638618 
23190000   0.10603975 
23200000   0.09864771 
23210000   0.10688073 
23220000   0.10899917 
23230000   0.10451527 
23240000   0.10617809 
23250000  0.093902403 
23260000  0.094694354 
23270000  0.098776013 
23280000  0.096281667 
23290000  0.099501048 
23300000   0.10468943 
23310000   0.10123629 
23320000   0.11065925 
23330000  0.097242973 
23340000  0.094659049 
23350000  0.094401647 
23360000  0.092311426 
23370000  0.091013735 
23380000   0.10253235 
23390000  0.097684663 
23400000  0.089293182 
23410000  0.094492751 
23420000   0.11646994 
23430000   0.10210438 
23440000   0.10818214 
23450000   0.11345474 
23460000   0.10550242 
23470000  0.089262273 
23480000   0.10183126 
23490000      0.10641 
23500000   0.11010529 
23510000   0.10164563 
23520000  0.098451539 
23530000  0.093853711 
23540000  0.092733012 
23550000  0.092104627 
23560000   0.10039822 
23570000  0.095930029 
23580000   0.10478306 
23590000  0.098404357 
23600000  0.098147121 
23610000  0.097743386 
23620000   0.10151625 
23630000   0.10848421 
23640000    0.1067842 
23650000   0.10740205 
23660000   0.10059279 
23670000   0.10178124 
23680000    0.1068683 
23690000   0.10259596 
23700000   0.09288193 
23710000   0.10426507 
23720000  0.097496598 
23730000  0.093331719 
23740000  0.095157584 
23750000  0.097668139 
23760000   0.10938604 
23770000  0.099627935 
23780000   0.09973775 
23790000  0.096774736 
23800000   0.10322137 
23810000  0.098098204 
23820000  0.098870697 
23830000   0.10595191 
23840000   0.11065493 
23850000  0.095990493 
23860000   0.10577307 
23870000  0.086215521 
23880000  0.099494524 
23890000  0.099244053 
23900000    0.1091038 
23910000   0.10040156 
23920000  0.097969312 
23930000   0.10249594 
23940000  0.099287929 
23950000  0.099344251 
23960000  0.095150064 
23970000   0.10260499 
23980000  0.098509814 
23990000  0.099153108 
24000000   0.11039904 
24010000    0.0857731 
24020000   0.10817386 
24030000  0.094922676 
24040000   0.09351355 
24050000  0.099651838 
24060000  0.096577729 
24070000  0.092391337 
24080000    0.1007592 
24090000   0.10121532 
24100000   0.10084866 
24110000   0.11048974 
24120000  0.094425339 
24130000  0.099014946 
24140000  0.095828534 
24150000  0.095845573 
24160000   0.10860441 
24170000   0.10732507 
24180000   0.11360374 
24190000  0.085383798 
24200000   0.10160743 
24210000  0.094551767 
24220000  0.094987433 
24230000   0.10187974 
24240000   0.10321605 
24250000   0.12115249 
24260000  0.088109246 
24270000   0.10282157 
24280000   0.10748646 
24290000   0.10089736 
24300000  0.098573843 
24310000   0.10548363 
24320000  0.097752524 
24330000  0.099859329 
24340000   0.10270069 
24350000   0.10246145 
24360000    0.1071906 
24370000  0.092228026 
24380000   0.11431131 
24390000   0.10050057 
24400000   0.11451932 
24410000  0.097552688 
24420000   0.11340602 
24430000  0.084176189 
24440000   0.10558644 
24450000   0.10966666 
24460000  0.098140219 
24470000   0.10075371 
24480000  0.084026154 
24490000  0.097134191 
24500000  0.099139664 
24510000  0.096077559 
24520000  0.087454712 
24530000  0.096918565 
24540000   0.10602869 
24550000  0.099734838 
24560000  0.091063739 
24570000   0.11058007 
24580000   0.09935766 
24590000   0.10232315 
24600000   0.10563802 
24610000    0.1059916 
24620000   0.10369064 
24630000  0.095614398 
24640000    0.1080212 
24650000   0.11037864 
24660000     0.105686 
24670000  0.097647579 
24680000    0.1012407 
24690000   0.11348415 
24700000   0.10636655 
24710000  0.097686463 
24720000   0.11196704 
24730000  0.097662994 
24740000  0.095321798 
24750000   0.10438389 
24760000   0.09634574 
24770000   0.11397574 
24780000   0.09366139 
24790000   0.10800784 
24800000  0.084911195 
24810000   0.10077159 
24820000   0.10692582 
24830000     0.102786 
24840000  0.099426365 
24850000   0.10371602 
24860000    0.1056429 
24870000   0.10336808 
24880000  0.096726223 
24890000  0.095652944 
24900000  0.096410365 
24910000   0.10609906 
24920000  0.094519157 
24930000  0.091280683 
24940000   0.11654244 
24950000   0.10790684 
24960000  0.098489383 
24970000  0.094649311 
24980000   0.10097023 
24990000  0.096674629 
25000000   0.10368326 
25010000   0.11179935 
25020000  0.087806202 
25030000  0.097436279 
25040000  0.096609676 
25050000   0.10268978 
25060000    0.1012299 
25070000   0.10271932 
25080000   0.10431106 
25090000   0.11266102 
25100000   0.09716867 
25110000   0.10107313 
25120000  0.093183571 
25130000   0.10234589 
25140000  0.089892876 
25150000    0.1071921 
25160000  0.091156082 
25170000   0.10926634 
25180000   0.10183536 
25190000  0.093669716 
25200000  0.093710064 
25210000   0.10434612 
25220000   0.11281546 
25230000  0.096469662 
25240000   0.10255382 
25250000   0.10509528 
25260000  0.083230634 
25270000   0.10303345 
25280000    0.1040188 
25290000   0.10216015 
25300000  0.091749813 
25310000   0.10292645 
25320000   0.10585447 
25330000  0.097821435 
25340000  0.089207849 
25350000   0.10463949 
25360000  0.097924183 
25370000   0.10158123 
25380000  0.095810428 
25390000  0.095256139 
25400000  0.092944748 
25410000   0.10609704 
25420000   0.10880864 
25430000    0.1034717 
25440000   0.10394687 
25450000  0.097138498 
25460000  0.096557021 
25470000   0.10824002 
25480000  0.092169946 
25490000   0.10123499 
25500000  0.093344476 
25510000   0.10009311 
25520000   0.10036781 
25530000   0.09937927 
25540000  0.099326623 
25550000  0.091781746 
25560000   0.10590801 
25570000   0.11059411 
25580000  0.097767773 
25590000    0.1024238 
25600000   0.10332654 
25610000   0.10988772 
25620000   0.10566494 
25630000   0.10691178 
25640000  0.094898712 
25650000   0.11161802 
25660000  0.096450884 
25670000  0.096083264 
25680000  0.096854948 
25690000  0.092519912 
25700000  0.099678588 
25710000   0.10213889 
25720000   0.09017631 
25730000   0.10187228 
25740000   0.10267677 
25750000   0.10277928 
25760000  0.095275189 
25770000  0.099632237 
25780000   0.10791496 
25790000  0.098819691 
25800000   0.10582268 
25810000   0.10270572 
25820000   0.10889246 
25830000   0.11486648 
25840000   0.10326266 
25850000    0.1078984 
25860000   0.10585896 
25870000   0.10026994 
25880000   0.10116211 
25890000    0.1089741 
25900000  0.098155947 
25910000  0.097454987 
25920000  0.097005069 
25930000  0.097586031 
25940000  0.095545427 
25950000  0.089481379 
25960000   0.10758458 
25970000   0.11179242 
25980000   0.11630195 
25990000  0.098696895 
26000000  0.098393491 
26010000   0.10207898 
26020000   0.10346328 
26030000   0.10391069 
26040000   0.10841812 
26050000   0.10328947 
26060000   0.09735088 
26070000   0.10644102 
26080000  0.099925486 
26090000    0.1024322 
26100000  0.099011967 
26110000   0.11631596 
26120000    0.1140025 
26130000   0.10268447 
26140000  0.099304618 
26150000   0.10665412 
26160000    0.1084449 
26170000  0.085796326 
26180000  0.087286427 
26190000   0.11248951 
26200000   0.10600591 
26210000   0.10332244 
26220000  0.099403797 
26230000  0.097512962 
26240000   0.11278871 
26250000   0.10809186 
26260000  0.094283634 
26270000   0.10997537 
26280000  0.095098293 
26290000   0.10129747 
26300000   0.10405149 
26310000  0.098594502 
26320000   0.10521283 
26330000   0.10653725 
26340000  0.097981222 
26350000    0.1069838 
26360000   0.10504864 
26370000   0.10205946 
26380000   0.10364712 
26390000  0.096105943 
26400000  0.095708615 
26410000  0.086657086 
26420000   0.10536725 
26430000   0.10182988 
26440000  0.098005724 
26450000   0.10621673 
26460000  0.089754688 
26470000   0.09468368 
26480000   0.10179485 
26490000   0.10226521 
26500000   0.10969155 
26510000   0.10130655 
26520000  0.094943445 
26530000   0.10975213 
26540000   0.10787832 
26550000   0.10113278 
26560000   0.10567565 
26570000  0.093906917 
26580000   0.10246367 
26590000   0.10077888 
26600000   0.10103897 
26610000  0.093673228 
26620000   0.10360722 
26630000  0.095603217 
26640000   0.10284557 
26650000   0.10117053 
26660000  0.094696852 
26670000   0.10245687 
26680000  0.096728746 
26690000  0.094799151 
26700000   0.10149774 
26710000   0.08651426 
26720000  0.096717624 
26730000   0.11398774 
26740000  0.098003699 
26750000   0.10518909 
26760000  0.091660469 
26770000  0.098987139 
26780000  0.095395888 
26790000   0.09108717 
26800000   0.10139545 
26810000   0.10631127 
26820000   0.10422248 
26830000   0.09599993 
26840000  0.094863135 
26850000  0.099973929 
26860000  0.097103431 
26870000   0.10531456 
26880000  0.087290196 
26890000  0.099838457 
26900000  0.097756691 
26910000   0.10074447 
26920000   0.10299414 
26930000   0.11183173 
26940000   0.09877653 
26950000   0.10070662 
26960000  0.092730064 
26970000   0.10659638 
26980000  0.093304193 
26990000  0.095016627 
27000000   0.10960044 
27010000   0.11304526 
27020000  0.092078716 
27030000   0.10504273 
27040000   0.11567833 
27050000  0.090594184 
27060000   0.10145577 
27070000   0.10342371 
27080000  0.094262331 
27090000  0.099953848 
27100000   0.11324293 
27110000  0.099818472 
27120000  0.091575713 
27130000   0.10407884 
27140000   0.11512483 
27150000  0.086966852 
27160000  0.099481189 
27170000  0.096090659 
27180000  0.097351815 
27190000   0.11115151 
27200000   0.11214008 
27210000   0.11284428 
27220000   0.11399777 
27230000   0.10813664 
27240000   0.11099315 
27250000   0.10655061 
27260000  0.098157334 
27270000  0.090055926 
27280000   0.10699532 
27290000  0.090112898 
27300000   0.10477202 
27310000  0.094734206 
27320000    0.1036615 
27330000  0.096657521 
27340000   0.10414137 
27350000   0.10356441 
27360000   0.10150527 
27370000   0.10325103 
27380000   0.10361684 
27390000  0.090543721 
27400000   0.10056246 
27410000    0.1119964 
27420000   0.10181666 
27430000   0.10362828 
27440000  0.096612483 
27450000   0.09972916 
27460000    0.1125389 
27470000   0.10644242 
27480000   0.10219548 
27490000  0.098838319 
27500000   0.10141422 
27510000  0.093266605 
27520000  0.095447025 
27530000   0.10381478 
27540000  0.098077276 
27550000   0.10077422 
27560000   0.10595521 
27570000   0.11309125 
27580000  0.094400931 
27590000   0.11243858 
27600000   0.10626755 
27610000  0.091216283 
27620000  0.099304234 
27630000   0.10615686 
27640000   0.10703289 
27650000   0.10358521 
27660000   0.10223663 
27670000   0.10182675 
27680000   0.10123714 
27690000   0.10234955 
27700000  0.099163885 
27710000   0.10420833 
27720000   0.10643132 
27730000  0.098188287 
27740000   0.10054526 
27750000   0.10192597 
27760000  0.098362358 
27770000   0.10656866 
27780000   0.10014092 
27790000   0.10368913 
27800000  0.098493705 
27810000  0.090337644 
27820000  0.095342752 
27830000   0.11069455 
27840000  0.090655691 
27850000   0.11015835 
27860000   0.10746438 
27870000  0.098094776 
27880000   0.10316894 
27890000   0.10790983 
27900000  0.090772088 
27910000  0.097314513 
27920000   0.09876126 
27930000   0.10328975 
27940000  0.097868116 
27950000   0.10769544 
27960000  0.099382695 
27970000   0.10482404 
27980000   0.10807194 
27990000   0.10029241 
28000000   0.10548793 
28010000   0.10616911 
28020000   0.10936431 
28030000   0.10108193 
28040000  0.098804195 
28050000   0.10112748 
28060000  0.097533523 
28070000  0.097437924 
28080000  0.099849161 
28090000   0.09406747 
28100000   0.10221993 
28110000   0.08887406 
28120000   0.10234706 
28130000   0.10462936 
28140000    0.0878963 
28150000    0.1037336 
28160000   0.10057343 
28170000   0.10541843 
28180000   0.10420713 
28190000   0.10741796 
28200000   0.10262124 
28210000   0.09689716 
28220000  0.094324655 
28230000   0.10935343 
28240000  0.098964027 
28250000   0.10041013 
28260000  0.098157907 
28270000  0.096749479 
28280000   0.11011498 
28290000  0.092711959 
28300000   0.10474188 
28310000   0.10318804 
28320000     0.106674 
28330000  0.095785654 
28340000   0.10760269 
28350000    0.0972375 
28360000   0.10797453 
28370000  0.093256778 
28380000  0.094854618 
28390000  0.096677963 
28400000   0.11509041 
28410000   0.10975221 
28420000   0.10480751 
28430000  0.094620549 
28440000   0.11269397 
28450000   0.10013866 
28460000   0.10306621 
28470000   0.09515355 
28480000   0.10327712 
28490000   0.10203793 
28500000   0.10583644 
28510000   0.10379265 
28520000  0.095030391 
28530000  0.098719043 
28540000    0.1064453 
28550000  0.093928809 
28560000  0.095638342 
28570000   0.10188012 
28580000   0.11184302 
28590000   0.10844907 
28600000  0.096904261 
28610000  0.088742302 
28620000  0.094229468 
28630000  0.099012812 
28640000   0.10114447 
28650000   0.10287724 
28660000    0.1073814 
28670000  0.089835674 
28680000  0.089458581 
28690000   0.10151201 
28700000  0.086665708 
28710000  0.093845566 
28720000   0.10423185 
28730000  0.081321821 
28740000  0.095065941 
28750000  0.093548502 
28760000   0.10098356 
28770000  0.097086342 
28780000   0.10438261 
28790000   0.10026303 
28800000   0.10849448 
28810000   0.11366005 
28820000   0.10538224 
28830000  0.097506885 
28840000   0.10617068 
28850000   0.10085058 
28860000    0.1029269 
28870000   0.10385577 
28880000   0.11308446 
28890000    0.1046745 
28900000  0.095767535 
28910000  0.094567099 
28920000   0.10475296 
28930000  0.098137095 
28940000  0.094256481 
28950000   0.10554205 
28960000   0.10753531 
28970000    0.1163315 
28980000  0.097784969 
28990000   0.10193971 
29000000    0.1003464 
29010000   0.10768189 
29020000   0.10424651 
29030000   0.10318854 
29040000   0.09217937 
29050000   0.11426898 
29060000   0.10023882 
29070000     0.103762 
29080000  0.097833852 
29090000   0.10926549 
29100000  0.096679786 
29110000  0.096099479 
29120000   0.10077567 
29130000  0.098472004 
29140000  0.098893879 
29150000  0.096503154 
29160000  0.091606748 
29170000  0.098893221 
29180000    0.1078851 
29190000   0.10695113 
29200000    0.1068926 
29210000   0.10034087 
29220000  0.098391909 
29230000   0.10155615 
29240000  0.098692672 
29250000    0.1027076 
29260000   0.10242755 
29270000   0.11308914 
29280000  0.099599717 
29290000   0.09684087 
29300000   0.11163262 
29310000   0.10144612 
29320000  0.098312571 
29330000   0.11309699 
29340000   0.10484589 
29350000   0.09822116 
29360000   0.10735947 
29370000    0.1106685 
29380000  0.098101438 
29390000  0.094141836 
29400000  0.096006571 
29410000  0.092266836 
29420000  0.089322743 
29430000  0.095421191 
29440000     0.107308 
29450000   0.10609094 
29460000   0.10108473 
29470000    0.1096476 
29480000   0.11578526 
29490000   0.10093024 
29500000   0.10198023 
29510000   0.10393028 
29520000  0.098786322 
29530000   0.12208301 
29540000  0.092419012 
29550000  0.099963437 
29560000   0.10109182 
29570000   0.10871031 
29580000   0.10159318 
29590000  0.097091532 
29600000  0.099402934 
29610000  0.098735963 
29620000   0.08891747 
29630000  0.089148051 
29640000  0.099612987 
29650000  0.095445867 
29660000   0.10104101 
29670000  0.095062048 
29680000  0.091765525 
29690000  0.096444286 
29700000   0.09886172 
29710000   0.10253864 
29720000  0.094077518 
29730000   0.10357498 
29740000  0.096767038 
29750000   0.10614684 
29760000  0.092136919 
29770000    0.0962931 
29780000  0.087694751 
29790000    0.1045289 
29800000   0.10447374 
29810000  0.094950619 
29820000  0.099397449 
29830000  0.092176986 
29840000   0.10477886 
29850000   0.09296798 
29860000   0.10543111 
29870000   0.11181569 
29880000   0.10776739 
29890000   0.08980731 
29900000  0.099506644 
29910000  0.097659234 
29920000   0.08713653 
29930000  0.087978668 
29940000  0.092565651 
29950000  0.095252202 
29960000   0.10444599 
29970000  0.096385443 
29980000   0.10370336 
29990000  0.095716126 
30000000  0.099839504 
30010000   0.10229443 
30020000   0.10186519 
30030000    0.1071505 
30040000  0.087515105 
30050000   0.09773758 
30060000  0.098803224 
30070000  0.097963154 
30080000   0.10011574 
30090000   0.09841436 
30100000   0.10724172 
30110000  0.089668506 
30120000  0.098065327 
30130000  0.092303255 
30140000   0.10495902 
30150000   0.10458471 
30160000  0.093089695 
30170000   0.10653206 
30180000   0.10533606 
30190000   0.10873572 
30200000   0.10706945 
30210000   0.10093985 
30220000  0.091147256 
30230000   0.10329464 
30240000   0.10588271 
30250000   0.11478364 
30260000   0.10347349 
30270000   0.11085339 
30280000  0.089955165 
30290000   0.10634129 
30300000  0.087181993 
30310000   0.10778075 
30320000  0.096277429 
30330000  0.092713825 
30340000   0.10441228 
30350000   0.11789962 
30360000  0.094704339 
30370000   0.10773178 
30380000   0.10236522 
30390000  0.091522256 
30400000  0.097083357 
30410000   0.09833509 
30420000  0.090252853 
30430000    0.0941192 
30440000   0.10941431 
30450000  0.092482996 
30460000   0.11079327 
30470000  0.096571583 
30480000    0.1044002 
30490000   0.10799461 
30500000   0.10665949 
30510000  0.089548831 
30520000   0.10809019 
30530000   0.10460147 
30540000   0.10644321 
30550000   0.10679814 
30560000  0.097360946 
30570000   0.10055388 
30580000   0.08886003 
30590000   0.10161428 
30600000   0.09997443 
30610000   0.10354123 
30620000   0.10562165 
30630000    0.1017375 
30640000  0.097071716 
30650000   0.10155371 
30660000  0.094577034 
30670000   0.11372756 
30680000  0.084977043 
30690000  0.095337204 
30700000   0.10531018 
30710000   0.10903238 
30720000  0.098574533 
30730000    0.1031341 
30740000   0.10976671 
30750000  0.095371631 
30760000   0.11268151 
30770000  0.098079524 
30780000   0.09847819 
30790000  0.096226948 
30800000    0.0903724 
30810000   0.10309222 
30820000   0.10929443 
30830000  0.095059887 
30840000  0.084979084 
30850000  0.084764154 
30860000  0.092791944 
30870000   0.10977221 
30880000    0.1028251 
30890000  0.093122681 
30900000  0.097564926 
30910000  0.095466816 
30920000   0.10758273 
30930000  0.096493354 
30940000   0.11001535 
30950000  0.098486176 
[...]
637300000  0.093645239 
637310000  0.094371174 
637320000   0.10308314 
637330000   0.08568097 
637340000  0.099891905 
637350000   0.10297792 
637360000    0.1002749 
637370000  0.097112937 
637380000  0.089758988 
637390000  0.096148398 
637400000    0.1027878 
637410000  0.097622121 
637420000  0.097169094 
637430000   0.10651329 
637440000   0.10055292 
637450000  0.095705854 
637460000  0.093947194 
637470000   0.10623104 
637480000   0.10798002 
637490000   0.10204004 
637500000   0.10137896 
637510000  0.097899023 
637520000  0.097292351 
637530000  0.096491151 
637540000   0.10240992 
637550000   0.10139136 
637560000    0.1024747 
637570000    0.1006698 
637580000   0.11126608 
637590000  0.093620319 
637600000  0.098416631 
637610000  0.091966503 
637620000  0.092993406 
637630000  0.095663404 
637640000   0.10320378 
637650000  0.094949244 
637660000   0.10320574 
637670000   0.11359478 
637680000   0.09444746 
637690000  0.099691364 
637700000    0.1113564 
637710000  0.090838031 
637720000   0.10900427 
637730000  0.092083379 
637740000   0.10238676 
637750000  0.094911872 
637760000  0.082546346 
637770000  0.091795046 
637780000   0.09555359 
637790000   0.10289758 
637800000   0.10774811 
637810000   0.09874264 
637820000   0.09298308 
637830000   0.10150705 
637840000   0.10382713 
637850000   0.10558791 
637860000     0.093438 
637870000  0.097394423 
637880000  0.091747128 
637890000   0.10640748 
637900000   0.09386787 
637910000   0.10092076 
637920000   0.09549024 
637930000  0.087786757 
637940000   0.10068396 
637950000    0.1001023 
637960000   0.10230539 
637970000  0.097735107 
637980000  0.089791805 
637990000   0.10022646 
638000000  0.091323522 
638010000  0.089544848 
638020000   0.10018657 
638030000   0.11500791 
638040000  0.097075954 
638050000   0.10235093 
638060000  0.094107843 
638070000   0.10227334 
638080000  0.097213533 
638090000  0.098992558 
638100000   0.10883189 
638110000   0.12150345 
638120000  0.091371933 
638130000   0.10703894 
638140000  0.099536118 
638150000  0.098831151 
638160000   0.10411958 
638170000   0.10283819 
638180000  0.097365759 
638190000   0.10039569 
638200000   0.11000423 
638210000  0.099693906 
638220000   0.10411648 
638230000   0.09825806 
638240000  0.099538802 
638250000   0.10280825 
638260000   0.10186073 
638270000  0.099260394 
638280000  0.092158589 
638290000  0.086926403 
638300000  0.097515974 
638310000   0.10228698 
638320000   0.10519574 
638330000  0.096554847 
638340000   0.10336642 
638350000  0.095311281 
638360000  0.094545754 
638370000   0.10400028 
638380000   0.10790879 
638390000  0.099937755 
638400000  0.092788989 
638410000   0.10000867 
638420000  0.085412248 
638430000   0.10054112 
638440000   0.10095819 
638450000   0.10137962 
638460000  0.090426138 
638470000  0.096408423 
638480000   0.10069255 
638490000   0.10259431 
638500000   0.10039107 
638510000   0.10217416 
638520000   0.11097438 
638530000   0.11174967 
638540000  0.089277929 
638550000  0.098935795 
638560000   0.10588701 
638570000  0.099885415 
638580000   0.12253937 
638590000  0.096650111 
638600000   0.10025961 
638610000   0.11204843 
638620000   0.10636495 
638630000   0.10547249 
638640000  0.098899816 
638650000   0.10006097 
638660000   0.09830125 
638670000   0.10360465 
638680000  0.098200309 
638690000   0.10349004 
638700000   0.10727047 
638710000  0.098667091 
638720000   0.10244082 
638730000   0.10642919 
638740000   0.11000345 
638750000  0.099286777 
638760000  0.093083862 
638770000  0.089019221 
638780000    0.1025784 
638790000  0.088790511 
638800000  0.098680251 
638810000   0.11548956 
638820000  0.096445746 
638830000  0.092266556 
638840000   0.10886126 
638850000   0.10112849 
638860000   0.10936071 
638870000  0.084600027 
638880000  0.097891264 
638890000   0.11421152 
638900000   0.10562066 
638910000   0.09190064 
638920000  0.095285599 
638930000   0.10542485 
638940000   0.11286889 
638950000   0.11225951 
638960000  0.099295971 
638970000   0.10874233 
638980000   0.10490339 
638990000  0.095288626 
639000000   0.10242086 
639010000   0.10146901 
639020000  0.092057484 
639030000  0.094720196 
639040000  0.096065966 
639050000   0.10020552 
639060000  0.086969886 
639070000   0.10317255 
639080000   0.10370256 
639090000    0.0996283 
639100000   0.10820478 
639110000   0.10329715 
639120000   0.10275406 
639130000   0.09969204 
639140000   0.11009659 
639150000   0.10585789 
639160000   0.10535208 
639170000    0.1012667 
639180000   0.10366786 
639190000  0.092418628 
639200000   0.10606691 
639210000  0.098306037 
639220000   0.10241837 
639230000    0.1060663 
639240000   0.10506737 
639250000   0.10299532 
639260000   0.10615203 
639270000   0.10828363 
639280000   0.10149355 
639290000   0.10402776 
639300000  0.096235371 
639310000   0.11012117 
639320000  0.090336836 
639330000   0.11156297 
639340000   0.10494279 
639350000  0.096364243 
639360000   0.10159839 
639370000   0.10378496 
639380000   0.10751033 
639390000  0.094645917 
639400000   0.10024006 
639410000   0.10057905 
639420000  0.098296216 
639430000  0.098425103 
639440000  0.092507308 
639450000  0.097915219 
639460000   0.10933009 
639470000   0.10923712 
639480000   0.11048848 
639490000   0.10462414 
639500000   0.09197045 
639510000  0.092845982 
639520000  0.099732237 
639530000   0.10249409 
639540000  0.091828342 
639550000   0.10822519 
639560000  0.095105429 
639570000  0.088211938 
639580000   0.10205358 
639590000  0.094500395 
639600000  0.088345852 
639610000   0.10096185 
639620000  0.092598371 
639630000   0.10998096 
639640000   0.10945377 
639650000  0.087630872 
639660000  0.090174293 
639670000   0.10385787 
639680000  0.099873552 
639690000   0.10416533 
639700000  0.091239551 
639710000   0.11441975 
639720000   0.10115975 
639730000   0.10592524 
639740000   0.10860794 
639750000  0.095740156 
639760000   0.09772055 
639770000   0.10664011 
639780000   0.10716842 
639790000   0.10983798 
639800000   0.10780128 
639810000  0.094735103 
639820000  0.097702647 
639830000   0.09223993 
639840000   0.10831047 
639850000  0.095059398 
639860000   0.10317808 
639870000   0.11439408 
639880000    0.1047017 
639890000    0.1101777 
639900000  0.087859176 
639910000   0.10087485 
639920000   0.10674031 
639930000   0.11512238 
639940000   0.10757589 
639950000  0.095528031 
639960000   0.10335015 
639970000  0.092251553 
639980000   0.10492755 
639990000   0.10546555 
640000000  0.093884462 
640010000  0.094379605 
640020000   0.10464546 
640030000  0.091410705 
640040000   0.10791146 
640050000  0.096557387 
640060000   0.10467997 
640070000   0.10221633 
640080000   0.10376593 
640090000  0.090747091 
640100000    0.1072595 
640110000  0.092771353 
640120000   0.10491576 
640130000   0.10348319 
640140000   0.11059104 
640150000  0.091267609 
640160000   0.10298991 
640170000  0.084742498 
640180000  0.093196789 
640190000   0.10399926 
640200000   0.10533051 
640210000  0.096691179 
640220000  0.097560073 
640230000    0.0938312 
640240000  0.092343141 
640250000   0.09280136 
640260000  0.093809174 
640270000   0.10874324 
640280000  0.093828071 
640290000  0.091999034 
640300000   0.10777771 
640310000  0.095489413 
640320000  0.093264448 
640330000   0.10621809 
640340000   0.10770448 
640350000  0.097794425 
640360000  0.093268449 
640370000  0.096195193 
640380000  0.086293259 
640390000   0.10786747 
640400000   0.10971991 
640410000   0.10827505 
640420000   0.10009665 
640430000  0.085798749 
640440000  0.091763264 
640450000  0.097930095 
640460000   0.10453346 
640470000    0.1034818 
640480000  0.099239398 
640490000   0.10202771 
640500000  0.092140159 
640510000   0.10734077 
640520000   0.10233909 
640530000   0.10660109 
640540000  0.095505442 
640550000   0.11477191 
640560000   0.09978244 
640570000   0.10131206 
640580000  0.090313854 
640590000   0.10086497 
640600000   0.10599314 
640610000   0.10200392 
640620000  0.096211911 
640630000   0.10628914 
640640000   0.10562952 
640650000  0.097753611 
640660000  0.099212386 
640670000   0.10506808 
640680000  0.099976247 
640690000  0.096256255 
640700000   0.10111153 
640710000   0.10033574 
640720000   0.10886361 
640730000   0.10799006 
640740000  0.093672464 
640750000   0.10023418 
640760000  0.098899796 
640770000  0.087268908 
640780000  0.095933164 
640790000   0.10056903 
640800000   0.10203443 
640810000  0.098533382 
640820000   0.09409987 
640830000   0.10544564 
640840000  0.091587729 
640850000   0.10097182 
640860000  0.098867783 
640870000    0.1048801 
640880000   0.10352904 
640890000    0.1003757 
640900000   0.10329433 
640910000  0.097701221 
640920000  0.093051361 
640930000  0.097556366 
640940000  0.094332588 
640950000   0.09949575 
640960000   0.10961249 
640970000    0.1048836 
640980000   0.10303195 
640990000  0.098790448 
641000000  0.096981545 
641010000   0.10114043 
641020000   0.10904369 
641030000   0.10415722 
641040000  0.099865349 
641050000   0.11186013 
641060000  0.099473877 
641070000   0.10712815 
641080000    0.1015868 
641090000  0.096449972 
641100000  0.099459881 
641110000  0.099408473 
641120000   0.11209568 
641130000  0.093500787 
641140000  0.094303634 
641150000   0.10832309 
641160000  0.097617965 
641170000  0.099211283 
641180000   0.10356796 
641190000   0.10518054 
641200000    0.1039452 
641210000   0.10323455 
641220000   0.11113517 
641230000   0.10017742 
641240000   0.11261286 
641250000   0.10109235 
641260000   0.10151144 
641270000   0.10241829 
641280000   0.11443913 
641290000   0.10902781 
641300000   0.10719869 
641310000  0.095541231 
641320000  0.097820122 
641330000  0.092742153 
641340000   0.10549878 
641350000  0.097963252 
641360000  0.096860761 
641370000  0.094269101 
641380000  0.093627089 
641390000     0.100906 
641400000  0.086912547 
641410000  0.094680134 
641420000  0.092924243 
641430000   0.11410422 
641440000    0.0877715 
641450000  0.097043318 
641460000  0.098181222 
641470000   0.10760507 
641480000   0.10128973 
641490000  0.090608552 
641500000   0.10007578 
641510000    0.1011377 
641520000   0.10562838 
641530000   0.10462979 
641540000  0.089967091 
641550000  0.097746901 
641560000   0.10156493 
641570000  0.088210355 
641580000  0.099225826 
641590000   0.10044486 
641600000   0.10169018 
641610000  0.099886168 
641620000  0.092046546 
641630000   0.10559006 
641640000   0.10566094 
641650000  0.097656917 
641660000  0.094371123 
641670000   0.10715858 
641680000   0.10205124 
641690000  0.099496864 
641700000   0.11668249 
641710000  0.091923531 
641720000   0.10147819 
641730000   0.10119382 
641740000  0.097680839 
641750000  0.099050343 
641760000   0.10521826 
641770000  0.094357412 
641780000  0.083412747 
641790000  0.098119628 
641800000  0.098049409 
641810000   0.10075736 
641820000  0.098177472 
641830000   0.11095591 
641840000   0.10099386 
641850000  0.095543406 
641860000   0.10352561 
641870000   0.10906548 
641880000   0.10247826 
641890000   0.10514548 
641900000   0.09992701 
641910000   0.10955695 
641920000   0.10781205 
641930000  0.092926308 
641940000  0.099730418 
641950000   0.10001167 
641960000    0.1003861 
641970000   0.10093568 
641980000  0.092318142 
641990000   0.10370514 
642000000  0.094547331 
642010000  0.097611118 
642020000  0.087383072 
642030000  0.099091413 
642040000   0.10289748 
642050000   0.11886381 
642060000   0.10315714 
642070000   0.11130486 
642080000  0.092230511 
642090000  0.090561519 
642100000   0.10813302 
642110000  0.093777792 
642120000   0.10853152 
642130000  0.096623812 
642140000   0.10374405 
642150000  0.097163854 
642160000  0.097402808 
642170000  0.094924918 
642180000  0.098403358 
642190000   0.10593718 
642200000   0.10284829 
642210000   0.10142025 
642220000  0.098032428 
642230000   0.09886494 
642240000  0.091882203 
642250000   0.10196609 
642260000   0.11009243 
642270000   0.10863483 
642280000   0.10742376 
642290000   0.10243493 
642300000   0.10008933 
642310000  0.097502267 
642320000  0.099501614 
642330000   0.10216508 
642340000  0.095549979 
642350000   0.11092181 
642360000   0.11760557 
642370000   0.10824682 
642380000   0.10631684 
642390000   0.11076039 
642400000   0.10106839 
642410000   0.10685819 
642420000    0.1146223 
642430000   0.10872161 
642440000  0.099756953 
642450000   0.10061604 
642460000   0.11418686 
642470000   0.10483912 
642480000   0.11122499 
642490000  0.093108777 
642500000   0.10019239 
642510000  0.093711172 
642520000   0.10350578 
642530000   0.11449116 
642540000   0.10636201 
642550000   0.10184271 
642560000  0.097711535 
642570000   0.10948546 
642580000  0.088652438 
642590000   0.10598417 
642600000  0.098433833 
642610000  0.095666738 
642620000   0.10618635 
642630000  0.089944866 
642640000  0.094891687 
642650000  0.090705314 
642660000   0.09619794 
642670000  0.099242141 
642680000   0.10119292 
642690000  0.096794931 
642700000   0.10262818 
642710000  0.093697474 
642720000  0.087855468 
642730000   0.10295541 
642740000   0.10736451 
642750000   0.10240365 
642760000  0.096526279 
642770000  0.086193105 
642780000   0.10323858 
642790000  0.089820611 
642800000   0.10904352 
642810000   0.09535853 
642820000  0.098816327 
642830000  0.098476665 
642840000  0.094196021 
642850000  0.094867297 
642860000  0.095677854 
642870000  0.093943602 
642880000    0.1065062 
642890000  0.087445745 
642900000   0.10269194 
642910000  0.088130523 
642920000   0.10299911 
642930000   0.10111011 
642940000   0.10214783 
642950000  0.087175972 
642960000  0.096281639 
642970000   0.10526812 
642980000   0.10528305 
642990000   0.11652186 
643000000   0.10420113 
643010000   0.10403113 
643020000  0.095619785 
643030000   0.10014981 
643040000  0.095145263 
643050000   0.10798637 
643060000    0.1026198 
643070000   0.10139942 
643080000  0.089904539 
643090000  0.092537068 
643100000  0.094171014 
643110000   0.10835393 
643120000   0.10841297 
643130000   0.10468364 
643140000  0.097622937 
643150000   0.10346224 
643160000  0.092177901 
643170000  0.099885503 
643180000  0.098690829 
643190000  0.091464974 
643200000   0.11410455 
643210000  0.095998047 
643220000   0.10653585 
643230000   0.11471772 
643240000  0.095944216 
643250000  0.097691351 
643260000   0.10328353 
643270000  0.088457054 
643280000  0.089941336 
643290000   0.10434455 
643300000  0.098419128 
643310000   0.09875693 
643320000  0.097361452 
643330000   0.10426501 
643340000  0.093426998 
643350000   0.10158471 
643360000  0.093779807 
643370000  0.091916803 
643380000   0.10368233 
643390000  0.090544518 
643400000    0.1009502 
643410000     0.102804 
643420000  0.099067961 
643430000  0.099325953 
643440000   0.10624477 
643450000   0.10497965 
643460000   0.10283133 
643470000  0.094274623 
643480000   0.10978611 
643490000      0.10426 
643500000  0.094228539 
643510000  0.083872811 
643520000   0.10257532 
643530000   0.10051907 
643540000   0.10349869 
643550000  0.082716774 
643560000  0.099528539 
643570000   0.10056814 
643580000   0.11480117 
643590000  0.098152127 
643600000   0.10873219 
643610000   0.10378827 
643620000  0.097484903 
643630000     0.108362 
643640000  0.096801843 
643650000  0.093034955 
643660000  0.099737392 
643670000  0.099240988 
643680000   0.10485416 
643690000   0.10186134 
643700000   0.10049793 
643710000   0.10763751 
643720000  0.088223012 
643730000  0.097588132 
643740000  0.095201529 
643750000   0.10786975 
643760000   0.11039888 
643770000  0.094169643 
643780000    0.1008265 
643790000  0.099231668 
643800000   0.10448398 
643810000  0.091824091 
643820000   0.10262172 
643830000   0.10789053 
643840000   0.10839441 
643850000   0.10181514 
643860000   0.10125948 
643870000  0.095474053 
643880000  0.096696594 
643890000   0.10075574 
643900000  0.099183465 
643910000  0.098788318 
643920000  0.096159827 
643930000   0.10351052 
643940000  0.094638036 
643950000   0.11104048 
643960000   0.10039908 
643970000    0.1064723 
643980000  0.098885169 
643990000  0.091645423 
644000000   0.11887371 
644010000  0.094740049 
644020000   0.10265888 
644030000  0.093426803 
644040000   0.10610976 
644050000   0.10242578 
644060000   0.10111326 
644070000   0.10544239 
644080000  0.094152201 
644090000  0.093755697 
644100000    0.1126807 
644110000   0.11407317 
644120000   0.10637364 
644130000  0.090982231 
644140000   0.11056503 
644150000   0.10188885 
644160000  0.098053506 
644170000   0.10997264 
644180000  0.096792533 
644190000   0.10502799 
644200000   0.10561723 
644210000    0.1007811 
644220000   0.11190051 
644230000   0.10249829 
644240000  0.090086967 
644250000  0.094750943 
644260000   0.10919672 
644270000   0.10112698 
644280000   0.10319925 
644290000   0.10755873 
644300000  0.097094596 
644310000   0.11226984 
644320000    0.1071133 
644330000  0.098560521 
644340000   0.10167563 
644350000   0.10909759 
644360000  0.088548803 
644370000  0.091288274 
644380000  0.097199031 
644390000  0.094277173 
644400000   0.10957664 
644410000   0.10783968 
644420000   0.10657272 
644430000   0.10174701 
644440000  0.093310491 
644450000    0.1029401 
644460000  0.098694165 
644470000   0.10660496 
644480000    0.1058799 
644490000   0.10799935 
644500000   0.09902681 
644510000   0.10833998 
644520000  0.098480315 
644530000  0.090317501 
644540000   0.11224763 
644550000  0.098452947 
644560000  0.098507802 
644570000  0.097535371 
644580000  0.094164106 
644590000  0.090647176 
644600000   0.10022372 
644610000  0.085243381 
644620000  0.088678025 
644630000   0.10619299 
644640000  0.094265408 
644650000  0.095968767 
644660000  0.097937866 
644670000  0.098814903 
644680000  0.098858317 
644690000   0.10733443 
644700000   0.10255372 
644710000   0.10000507 
644720000   0.11074468 
644730000  0.097612273 
644740000  0.096851118 
644750000  0.095560432 
644760000  0.098702882 
644770000   0.11027732 
644780000   0.11127734 
644790000   0.10719945 
644800000   0.10962438 
644810000   0.09496884 
644820000   0.10285601 
644830000   0.10632169 
644840000   0.10099648 
644850000  0.094421823 
644860000   0.10305147 
644870000  0.092030816 
644880000  0.097033727 
644890000  0.096764383 
644900000   0.10084226 
644910000   0.10250715 
644920000  0.098582211 
644930000   0.10389812 
644940000  0.099820685 
644950000    0.1072673 
644960000   0.10501594 
644970000   0.10058935 
644980000   0.10260347 
644990000   0.11171879 
645000000    0.1054917 
645010000   0.10467071 
645020000   0.10214568 
645030000  0.099828059 
645040000  0.095413668 
645050000  0.098424277 
645060000   0.10358931 
645070000   0.10898943 
645080000   0.11192135 
645090000    0.1058876 
645100000   0.10509801 
645110000   0.11394212 
645120000   0.11063157 
645130000   0.10207266 
645140000   0.10359923 
645150000   0.10391792 
645160000  0.088354315 
645170000    0.1079749 
645180000   0.10917463 
645190000   0.10402385 
645200000   0.10466308 
645210000   0.10038003 
645220000  0.097589556 
645230000  0.093760571 
645240000  0.094755308 
645250000   0.10575882 
645260000  0.096705992 
645270000   0.09911679 
645280000  0.095153736 
645290000   0.10576255 
645300000  0.096424659 
645310000  0.097414277 
645320000   0.11673843 
645330000  0.091963681 
645340000  0.095300992 
645350000    0.1114061 
645360000   0.10610235 
645370000    0.0919103 
645380000   0.10602136 
645390000  0.095696927 
645400000   0.10234806 
645410000   0.10180741 
645420000  0.096063321 
645430000  0.099945649 
645440000   0.10350655 
645450000  0.097692288 
645460000  0.089794011 
645470000    0.1028775 
645480000   0.09901623 
645490000  0.090677618 
645500000   0.10792668 
645510000   0.10247425 
645520000  0.099569226 
645530000  0.089948861 
645540000   0.10450645 
645550000  0.095218959 
645560000   0.10051523 
645570000  0.097939238 
645580000  0.095275195 
645590000   0.10294798 
645600000   0.10537037 
645610000  0.093401051 
645620000  0.098529002