# LAMMPS data file
141 atoms
141 ellipsoids
138 bonds

4 atom types
1 bond types

# System size
0.000000 31.000000 xlo xhi
0.000000 31.000000 ylo yhi
0.000000 31.000000 zlo zhi

Masses

1 3.1575
2 3.1575
3 3.1575
4 3.1575

# Atom-ID, type, position, molecule-ID, ellipsoid flag, density
Atoms

1 3 -4.189392089843750e+00 -1.000811767578125e+01 -3.504760742187500e+00 1 1 1
2 2 -3.922790527343750e+00 -9.819152832031250e+00 -3.078247070312500e+00 1 1 1
3 4 -3.495483398437500e+00 -9.629821777343750e+00 -2.813354492187500e+00 1 1 1
4 1 -3.022460937500000e+00 -9.379882812500000e+00 -2.763305664062500e+00 1 1 1
5 3 -2.636413574218750e+00 -9.032104492187500e+00 -2.900024414062500e+00 1 1 1
6 2 -2.436706542968750e+00 -8.586547851562500e+00 -3.124084472656250e+00 1 1 1
7 1 -2.452026367187500e+00 -8.080200195312500e+00 -3.303283691406250e+00 1 1 1
8 3 -2.629455566406250e+00 -7.573425292968750e+00 -3.322143554687500e+00 1 1 1
9 1 -2.854309082031250e+00 -7.126464843750000e+00 -3.126220703125000e+00 1 1 1
10 4 -2.994018554687500e+00 -6.777099609375000e+00 -2.742736816406250e+00 1 1 1
11 3 -2.948303222656250e+00 -6.525756835937500e+00 -2.270019531250000e+00 1 1 1
12 1 -2.687377929687500e+00 -6.335937500000000e+00 -1.840454101562500e+00 1 1 1
13 4 -2.263122558593750e+00 -6.147460937500000e+00 -1.569946289062500e+00 1 1 1
14 1 -1.789550781250000e+00 -5.899841308593750e+00 -1.513916015625000e+00 1 1 1
15 2 -1.399475097656250e+00 -5.554992675781250e+00 -1.646484375000000e+00 1 1 1
16 2 -1.193786621093750e+00 -5.111755371093750e+00 -1.869934082031250e+00 1 1 1
17 3 -1.203491210937500e+00 -4.606384277343750e+00 -2.052124023437500e+00 1 1 1
18 2 -1.377746582031250e+00 -4.098754882812500e+00 -2.076538085937500e+00 1 1 1
19 2 -1.603149414062500e+00 -3.649475097656250e+00 -1.886657714843750e+00 1 1 1
20 2 -1.746826171875000e+00 -3.297180175781250e+00 -1.507263183593750e+00 1 1 1
21 1 -1.707092285156250e+00 -3.043518066406250e+00 -1.035278320312500e+00 1 1 1
22 2 -1.451782226562500e+00 -2.852661132812500e+00 -6.027832031250000e-01 1 1 1
23 4 -1.030700683593750e+00 -2.665039062500000e+00 -3.267211914062500e-01 1 1 1
24 1 -5.567626953125000e-01 -2.419738769531250e+00 -2.647094726562500e-01 1 1 1
25 4 -1.626586914062500e-01 -2.077819824218750e+00 -3.930664062500000e-01 1 1 1
26 4  4.895019531250000e-02 -1.636962890625000e+00 -6.157226562500000e-01 1 1 1
27 4  4.486083984375000e-02 -1.132568359375000e+00 -8.008422851562500e-01 1 1 1
28 3  1.047607421875000e+00  6.872558593750000e-02 -9.096679687500000e-01 1 1 1
29 1  1.129150390625000e+00  4.830932617187500e-01 -1.241821289062500e+00 1 1 1
30 3  1.274780273437500e+00  9.833984375000000e-01 -1.372802734375000e+00 1 1 1
31 4  1.545776367187500e+00  1.444091796875000e+00 -1.317565917968750e+00 1 1 1
32 4  1.955688476562500e+00  1.754516601562500e+00 -1.161865234375000e+00 1 1 1
33 3  2.465393066406250e+00  1.861328125000000e+00 -1.029479980468750e+00 1 1 1
34 1  2.997680664062500e+00  1.788452148437500e+00 -1.035461425781250e+00 1 1 1
35 2  3.466918945312500e+00  1.627929687500000e+00 -1.242248535156250e+00 1 1 1
36 3  3.811340332031250e+00  1.505371093750000e+00 -1.635986328125000e+00 1 1 1
37 3  4.016601562500000e+00  1.531799316406250e+00 -2.131835937500000e+00 1 1 1
38 1  4.121398925781250e+00  1.761596679687500e+00 -2.606079101562500e+00 1 1 1
39 2  4.202270507812500e+00  2.171997070312500e+00 -2.943298339843750e+00 1 1 1
40 2  4.345092773437500e+00  2.671569824218750e+00 -3.080078125000000e+00 1 1 1
41 1  4.612182617187500e+00  3.135009765625000e+00 -3.029174804687500e+00 1 1 1
42 2  5.018554687500000e+00  3.450744628906250e+00 -2.874633789062500e+00 1 1 1
43 4  5.526367187500000e+00  3.563232421875000e+00 -2.739868164062500e+00 1 1 1
44 1  6.059204101562500e+00  3.494323730468750e+00 -2.740844726562500e+00 1 1 1
45 4  6.531250000000000e+00  3.334655761718750e+00 -2.941894531250000e+00 1 1 1
46 3  6.879577636718750e+00  3.209350585937500e+00 -3.331298828125000e+00 1 1 1
47 2  7.088500976562500e+00  3.230529785156250e+00 -3.825805664062500e+00 1 1 1
48 3 -5.353088378906250e+00  5.839233398437500e+00  8.199829101562500e+00 2 1 1
49 2 -4.888488769531250e+00  5.575744628906250e+00  8.141662597656250e+00 2 1 1
50 4 -4.575195312500000e+00  5.142028808593750e+00  8.092346191406250e+00 2 1 1
51 1 -4.460998535156250e+00  4.633789062500000e+00  7.960754394531250e+00 2 1 1
52 3 -4.518005371093750e+00  4.174987792968750e+00  7.687011718750000e+00 2 1 1
53 2 -4.653259277343750e+00  3.870849609375000e+00  7.265197753906250e+00 2 1 1
54 1 -4.744079589843750e+00  3.767883300781250e+00  6.745727539062500e+00 2 1 1
55 2 -4.684631347656250e+00  3.835998535156250e+00  6.216125488281250e+00 2 1 1
56 2 -4.426330566406250e+00  3.980346679687500e+00  5.767639160156250e+00 2 1 1
57 4 -3.995910644531250e+00  4.076965332031250e+00  5.460937500000000e+00 2 1 1
58 1 -3.485656738281250e+00  4.019958496093750e+00  5.302429199218750e+00 2 1 1
59 2 -3.018127441406250e+00  3.762023925781250e+00  5.242736816406250e+00 2 1 1
60 2 -2.699707031250000e+00  3.331970214843750e+00  5.194458007812500e+00 2 1 1
61 2 -2.580017089843750e+00  2.824157714843750e+00  5.066162109375000e+00 2 1 1
62 3 -2.633239746093750e+00  2.362365722656250e+00  4.796813964843750e+00 2 1 1
63 4 -2.767883300781250e+00  2.052917480468750e+00  4.378662109375000e+00 2 1 1
64 1 -2.861572265625000e+00  1.944396972656250e+00  3.860839843750000e+00 2 1 1
65 2 -2.807312011718750e+00  2.008850097656250e+00  3.330200195312500e+00 2 1 1
66 3 -2.554504394531250e+00  2.152709960937500e+00  2.878417968750000e+00 2 1 1
67 1 -2.127929687500000e+00  2.252258300781250e+00  2.567321777343750e+00 2 1 1
68 3 -1.618347167968750e+00  2.200561523437500e+00  2.405151367187500e+00 2 1 1
69 1 -1.148010253906250e+00  1.948120117187500e+00  2.343750000000000e+00 2 1 1
70 1 -8.243408203125000e-01  1.521850585937500e+00  2.296508789062500e+00 2 1 1
71 3 -6.990966796875000e-01  1.014526367187500e+00  2.171569824218750e+00 2 1 1
72 3 -7.485351562500000e-01  5.498046875000000e-01  1.906372070312500e+00 2 1 1
73 3 -8.825683593750000e-01  2.351684570312500e-01  1.491943359375000e+00 2 1 1
74 2 -9.790039062500000e-01  1.210937500000000e-01  9.758911132812500e-01 2 1 1
75 1 -8.339233398437500e-01 -1.111022949218750e+00  1.599121093750000e-02 2 1 1
76 1 -1.086364746093750e+00 -1.302368164062500e+00 -4.179687500000000e-01 2 1 1
77 1 -1.123168945312500e+00 -1.557250976562500e+00 -8.895263671875000e-01 2 1 1
78 4 -9.775390625000000e-01 -1.911010742187500e+00 -1.266784667968750e+00 2 1 1
79 1 -7.519531250000000e-01 -2.361389160156250e+00 -1.453674316406250e+00 2 1 1
80 3 -5.792846679687500e-01 -2.869506835937500e+00 -1.426513671875000e+00 2 1 1
81 4 -5.723876953125000e-01 -3.374389648437500e+00 -1.242858886718750e+00 2 1 1
82 3 -7.810668945312500e-01 -3.816406250000000e+00 -1.019775390625000e+00 2 1 1
83 3 -1.173156738281250e+00 -4.159790039062500e+00 -8.892822265625000e-01 2 1 1
84 3 -1.646911621093750e+00 -4.406250000000000e+00 -9.483032226562500e-01 2 1 1
85 2 -2.069580078125000e+00 -4.594299316406250e+00 -1.221557617187500e+00 2 1 1
86 3 -2.327697753906250e+00 -4.784606933593750e+00 -1.652648925781250e+00 2 1 1
87 3 -2.370422363281250e+00 -5.037109375000000e+00 -2.125000000000000e+00 2 1 1
88 4 -2.228698730468750e+00 -5.388000488281250e+00 -2.506469726562500e+00 2 1 1
89 1 -2.003601074218750e+00 -5.836059570312500e+00 -2.699401855468750e+00 2 1 1
90 4 -1.827758789062500e+00 -6.343322753906250e+00 -2.677734375000000e+00 2 1 1
91 2 -1.815185546875000e+00 -6.849182128906250e+00 -2.497009277343750e+00 2 1 1
92 1 -2.017883300781250e+00 -7.293579101562500e+00 -2.273254394531250e+00 2 1 1
93 4 -2.406005859375000e+00 -7.639892578125000e+00 -2.138610839843750e+00 2 1 1
94 2 -2.879272460937500e+00 -7.888671875000000e+00 -2.191589355468750e+00 2 1 1
95 3  8.812072753906250e+00  4.705505371093750e+00 -5.495178222656250e+00 3 1 1
96 2  8.731933593750000e+00  4.301208496093750e+00 -5.150512695312500e+00 3 1 1
97 4  8.624389648437500e+00  4.079956054687500e+00 -4.672851562500000e+00 3 1 1
98 1  8.413635253906250e+00  4.061401367187500e+00 -4.178955078125000e+00 3 1 1
99 3  8.063354492187500e+00  4.187988281250000e+00 -3.791687011718750e+00 3 1 1
100 2  7.589965820312500e+00  4.347229003906250e+00 -3.593627929687500e+00 3 1 1
101 1  7.056884765625000e+00  4.414123535156250e+00 -3.595153808593750e+00 3 1 1
102 3  6.549987792968750e+00  4.298767089843750e+00 -3.731018066406250e+00 3 1 1
103 2  6.145446777343750e+00  3.980468750000000e+00 -3.884887695312500e+00 3 1 1
104 1  5.880310058593750e+00  3.515625000000000e+00 -3.933654785156250e+00 3 1 1
105 4  5.738830566406250e+00  3.016479492187500e+00 -3.793945312500000e+00 3 1 1
106 1  5.658203125000000e+00  2.608093261718750e+00 -3.454223632812500e+00 3 1 1
107 3  5.552551269531250e+00  2.381164550781250e+00 -2.978820800781250e+00 3 1 1
108 4  5.345458984375000e+00  2.357360839843750e+00 -2.483642578125000e+00 3 1 1
109 3  4.999084472656250e+00  2.481323242187500e+00 -2.092041015625000e+00 3 1 1
110 3  4.528442382812500e+00  2.641357421875000e+00 -1.888183593750000e+00 3 1 1
111 4  3.995910644531250e+00  2.712341308593750e+00 -1.884643554687500e+00 3 1 1
112 2  3.487121582031250e+00  2.602661132812500e+00 -2.018249511718750e+00 3 1 1
113 2  3.078918457031250e+00  2.289550781250000e+00 -2.173400878906250e+00 3 1 1
114 3  2.809936523437500e+00  1.827514648437500e+00 -2.226440429687500e+00 3 1 1
115 4  2.665710449218750e+00  1.327575683593750e+00 -2.092590332031250e+00 3 1 1
116 2  2.584472656250000e+00  9.151611328125000e-01 -1.757873535156250e+00 3 1 1
117 1  2.480651855468750e+00  6.824951171875000e-01 -1.284851074218750e+00 3 1 1
118 1  2.277160644531250e+00  6.534423828125000e-01 -7.883911132812500e-01 3 1 1
119 2  1.934692382812500e+00  7.745971679687500e-01 -3.925170898437500e-01 3 1 1
120 4  1.466857910156250e+00  9.354248046875000e-01 -1.829223632812500e-01 3 1 1
121 2  9.348754882812500e-01  1.010314941406250e+00 -1.743774414062500e-01 3 1 1
122 3 -2.129516601562500e-01  1.041137695312500e+00  8.942871093750000e-01 3 1 1
123 2 -6.846313476562500e-01  1.290771484375000e+00  9.566040039062500e-01 3 1 1
124 2 -1.193908691406250e+00  1.339843750000000e+00  1.120605468750000e+00 3 1 1
125 2 -1.618591308593750e+00  1.238891601562500e+00  1.433837890625000e+00 3 1 1
126 4 -1.868591308593750e+00  1.095275878906250e+00  1.887268066406250e+00 3 1 1
127 4 -1.920288085937500e+00  1.032714843750000e+00  2.418395996093750e+00 3 1 1
128 2 -1.825256347656250e+00  1.144042968750000e+00  2.935302734375000e+00 3 1 1
129 4 -1.690856933593750e+00  1.456054687500000e+00  3.351562500000000e+00 3 1 1
130 2 -1.639526367187500e+00  1.919311523437500e+00  3.618896484375000e+00 3 1 1
131 3 -1.762023925781250e+00  2.426940917968750e+00  3.745544433593750e+00 3 1 1
132 4 -2.083068847656250e+00  2.855102539062500e+00  3.793273925781250e+00 3 1 1
133 1 -2.552001953125000e+00  3.110290527343750e+00  3.853820800781250e+00 3 1 1
134 2 -3.061950683593750e+00  3.164611816406250e+00  4.014038085937500e+00 3 1 1
135 3 -3.490417480468750e+00  3.066528320312500e+00  4.323059082031250e+00 3 1 1
136 3 -3.746032714843750e+00  2.922424316406250e+00  4.773132324218750e+00 3 1 1
137 3 -3.802856445312500e+00  2.856079101562500e+00  5.303283691406250e+00 3 1 1
138 4 -3.710571289062500e+00  2.961853027343750e+00  5.821899414062500e+00 3 1 1
139 1 -3.575622558593750e+00  3.268615722656250e+00  6.241882324218750e+00 3 1 1
140 3 -3.520507812500000e+00  3.728942871093750e+00  6.513488769531250e+00 3 1 1
141 3 -3.637451171875000e+00  4.236999511718750e+00  6.643432617187500e+00 3 1 1

# Atom-ID, translational, rotational velocity
Velocities

1  0.000000000000000e+00  0.000000000000000e+00  0.000000000000000e+00  0.000000000000000e+00  0.000000000000000e+00  0.000000000000000e+00
2  0.000000000000000e+00  0.000000000000000e+00  0.000000000000000e+00  0.000000000000000e+00  0.000000000000000e+00  0.000000000000000e+00
3  0.000000000000000e+00  0.000000000000000e+00  0.000000000000000e+00  0.000000000000000e+00  0.000000000000000e+00  0.000000000000000e+00
4  0.000000000000000e+00  0.000000000000000e+00  0.000000000000000e+00  0.000000000000000e+00  0.000000000000000e+00  0.000000000000000e+00
5  0.000000000000000e+00  0.000000000000000e+00  0.000000000000000e+00  0.000000000000000e+00  0.000000000000000e+00  0.000000000000000e+00
6  0.000000000000000e+00  0.000000000000000e+00  0.000000000000000e+00  0.000000000000000e+00  0.000000000000000e+00  0.000000000000000e+00
7  0.000000000000000e+00  0.000000000000000e+00  0.000000000000000e+00  0.000000000000000e+00  0.000000000000000e+00  0.000000000000000e+00
8  0.000000000000000e+00  0.000000000000000e+00  0.000000000000000e+00  0.000000000000000e+00  0.000000000000000e+00  0.000000000000000e+00
9  0.000000000000000e+00  0.000000000000000e+00  0.000000000000000e+00  0.000000000000000e+00  0.000000000000000e+00  0.000000000000000e+00
10  0.000000000000000e+00  0.000000000000000e+00  0.000000000000000e+00  0.000000000000000e+00  0.000000000000000e+00  0.000000000000000e+00
11  0.000000000000000e+00  0.000000000000000e+00  0.000000000000000e+00  0.000000000000000e+00  0.000000000000000e+00  0.000000000000000e+00
12  0.000000000000000e+00  0.000000000000000e+00  0.000000000000000e+00  0.000000000000000e+00  0.000000000000000e+00  0.000000000000000e+00
13  0.000000000000000e+00  0.000000000000000e+00  0.000000000000000e+00  0.000000000000000e+00  0.000000000000000e+00  0.000000000000000e+00
14  0.000000000000000e+00  0.000000000000000e+00  0.000000000000000e+00  0.000000000000000e+00  0.000000000000000e+00  0.000000000000000e+00
15  0.000000000000000e+00  0.000000000000000e+00  0.000000000000000e+00  0.000000000000000e+00  0.000000000000000e+00  0.000000000000000e+00
16  0.000000000000000e+00  0.000000000000000e+00  0.000000000000000e+00  0.000000000000000e+00  0.000000000000000e+00  0.000000000000000e+00
17  0.000000000000000e+00  0.000000000000000e+00  0.000000000000000e+00  0.000000000000000e+00  0.000000000000000e+00  0.000000000000000e+00
18  0.000000000000000e+00  0.000000000000000e+00  0.000000000000000e+00  0.000000000000000e+00  0.000000000000000e+00  0.000000000000000e+00
19  0.000000000000000e+00  0.000000000000000e+00  0.000000000000000e+00  0.000000000000000e+00  0.000000000000000e+00  0.000000000000000e+00
20  0.000000000000000e+00  0.000000000000000e+00  0.000000000000000e+00  0.000000000000000e+00  0.000000000000000e+00  0.000000000000000e+00
21  0.000000000000000e+00  0.000000000000000e+00  0.000000000000000e+00  0.000000000000000e+00  0.000000000000000e+00  0.000000000000000e+00
22  0.000000000000000e+00  0.000000000000000e+00  0.000000000000000e+00  0.000000000000000e+00  0.000000000000000e+00  0.000000000000000e+00
23  0.000000000000000e+00  0.000000000000000e+00  0.000000000000000e+00  0.000000000000000e+00  0.000000000000000e+00  0.000000000000000e+00
24  0.000000000000000e+00  0.000000000000000e+00  0.000000000000000e+00  0.000000000000000e+00  0.000000000000000e+00  0.000000000000000e+00
25  0.000000000000000e+00  0.000000000000000e+00  0.000000000000000e+00  0.000000000000000e+00  0.000000000000000e+00  0.000000000000000e+00
26  0.000000000000000e+00  0.000000000000000e+00  0.000000000000000e+00  0.000000000000000e+00  0.000000000000000e+00  0.000000000000000e+00
27  0.000000000000000e+00  0.000000000000000e+00  0.000000000000000e+00  0.000000000000000e+00  0.000000000000000e+00  0.000000000000000e+00
28  0.000000000000000e+00  0.000000000000000e+00  0.000000000000000e+00  0.000000000000000e+00  0.000000000000000e+00  0.000000000000000e+00
29  0.000000000000000e+00  0.000000000000000e+00  0.000000000000000e+00  0.000000000000000e+00  0.000000000000000e+00  0.000000000000000e+00
30  0.000000000000000e+00  0.000000000000000e+00  0.000000000000000e+00  0.000000000000000e+00  0.000000000000000e+00  0.000000000000000e+00
31  0.000000000000000e+00  0.000000000000000e+00  0.000000000000000e+00  0.000000000000000e+00  0.000000000000000e+00  0.000000000000000e+00
32  0.000000000000000e+00  0.000000000000000e+00  0.000000000000000e+00  0.000000000000000e+00  0.000000000000000e+00  0.000000000000000e+00
33  0.000000000000000e+00  0.000000000000000e+00  0.000000000000000e+00  0.000000000000000e+00  0.000000000000000e+00  0.000000000000000e+00
34  0.000000000000000e+00  0.000000000000000e+00  0.000000000000000e+00  0.000000000000000e+00  0.000000000000000e+00  0.000000000000000e+00
35  0.000000000000000e+00  0.000000000000000e+00  0.000000000000000e+00  0.000000000000000e+00  0.000000000000000e+00  0.000000000000000e+00
36  0.000000000000000e+00  0.000000000000000e+00  0.000000000000000e+00  0.000000000000000e+00  0.000000000000000e+00  0.000000000000000e+00
37  0.000000000000000e+00  0.000000000000000e+00  0.000000000000000e+00  0.000000000000000e+00  0.000000000000000e+00  0.000000000000000e+00
38  0.000000000000000e+00  0.000000000000000e+00  0.000000000000000e+00  0.000000000000000e+00  0.000000000000000e+00  0.000000000000000e+00
39  0.000000000000000e+00  0.000000000000000e+00  0.000000000000000e+00  0.000000000000000e+00  0.000000000000000e+00  0.000000000000000e+00
40  0.000000000000000e+00  0.000000000000000e+00  0.000000000000000e+00  0.000000000000000e+00  0.000000000000000e+00  0.000000000000000e+00
41  0.000000000000000e+00  0.000000000000000e+00  0.000000000000000e+00  0.000000000000000e+00  0.000000000000000e+00  0.000000000000000e+00
42  0.000000000000000e+00  0.000000000000000e+00  0.000000000000000e+00  0.000000000000000e+00  0.000000000000000e+00  0.000000000000000e+00
43  0.000000000000000e+00  0.000000000000000e+00  0.000000000000000e+00  0.000000000000000e+00  0.000000000000000e+00  0.000000000000000e+00
44  0.000000000000000e+00  0.000000000000000e+00  0.000000000000000e+00  0.000000000000000e+00  0.000000000000000e+00  0.000000000000000e+00
45  0.000000000000000e+00  0.000000000000000e+00  0.000000000000000e+00  0.000000000000000e+00  0.000000000000000e+00  0.000000000000000e+00
46  0.000000000000000e+00  0.000000000000000e+00  0.000000000000000e+00  0.000000000000000e+00  0.000000000000000e+00  0.000000000000000e+00
47  0.000000000000000e+00  0.000000000000000e+00  0.000000000000000e+00  0.000000000000000e+00  0.000000000000000e+00  0.000000000000000e+00
48  0.000000000000000e+00  0.000000000000000e+00  0.000000000000000e+00  0.000000000000000e+00  0.000000000000000e+00  0.000000000000000e+00
49  0.000000000000000e+00  0.000000000000000e+00  0.000000000000000e+00  0.000000000000000e+00  0.000000000000000e+00  0.000000000000000e+00
50  0.000000000000000e+00  0.000000000000000e+00  0.000000000000000e+00  0.000000000000000e+00  0.000000000000000e+00  0.000000000000000e+00
51  0.000000000000000e+00  0.000000000000000e+00  0.000000000000000e+00  0.000000000000000e+00  0.000000000000000e+00  0.000000000000000e+00
52  0.000000000000000e+00  0.000000000000000e+00  0.000000000000000e+00  0.000000000000000e+00  0.000000000000000e+00  0.000000000000000e+00
53  0.000000000000000e+00  0.000000000000000e+00  0.000000000000000e+00  0.000000000000000e+00  0.000000000000000e+00  0.000000000000000e+00
54  0.000000000000000e+00  0.000000000000000e+00  0.000000000000000e+00  0.000000000000000e+00  0.000000000000000e+00  0.000000000000000e+00
55  0.000000000000000e+00  0.000000000000000e+00  0.000000000000000e+00  0.000000000000000e+00  0.000000000000000e+00  0.000000000000000e+00
56  0.000000000000000e+00  0.000000000000000e+00  0.000000000000000e+00  0.000000000000000e+00  0.000000000000000e+00  0.000000000000000e+00
57  0.000000000000000e+00  0.000000000000000e+00  0.000000000000000e+00  0.000000000000000e+00  0.000000000000000e+00  0.000000000000000e+00
58  0.000000000000000e+00  0.000000000000000e+00  0.000000000000000e+00  0.000000000000000e+00  0.000000000000000e+00  0.000000000000000e+00
59  0.000000000000000e+00  0.000000000000000e+00  0.000000000000000e+00  0.000000000000000e+00  0.000000000000000e+00  0.000000000000000e+00
60  0.000000000000000e+00  0.000000000000000e+00  0.000000000000000e+00  0.000000000000000e+00  0.000000000000000e+00  0.000000000000000e+00
61  0.000000000000000e+00  0.000000000000000e+00  0.000000000000000e+00  0.000000000000000e+00  0.000000000000000e+00  0.000000000000000e+00
62  0.000000000000000e+00  0.000000000000000e+00  0.000000000000000e+00  0.000000000000000e+00  0.000000000000000e+00  0.000000000000000e+00
63  0.000000000000000e+00  0.000000000000000e+00  0.000000000000000e+00  0.000000000000000e+00  0.000000000000000e+00  0.000000000000000e+00
64  0.000000000000000e+00  0.000000000000000e+00  0.000000000000000e+00  0.000000000000000e+00  0.000000000000000e+00  0.000000000000000e+00
65  0.000000000000000e+00  0.000000000000000e+00  0.000000000000000e+00  0.000000000000000e+00  0.000000000000000e+00  0.000000000000000e+00
66  0.000000000000000e+00  0.000000000000000e+00  0.000000000000000e+00  0.000000000000000e+00  0.000000000000000e+00  0.000000000000000e+00
67  0.000000000000000e+00  0.000000000000000e+00  0.000000000000000e+00  0.000000000000000e+00  0.000000000000000e+00  0.000000000000000e+00
68  0.000000000000000e+00  0.000000000000000e+00  0.000000000000000e+00  0.000000000000000e+00  0.000000000000000e+00  0.000000000000000e+00
69  0.000000000000000e+00  0.000000000000000e+00  0.000000000000000e+00  0.000000000000000e+00  0.000000000000000e+00  0.000000000000000e+00
70  0.000000000000000e+00  0.000000000000000e+00  0.000000000000000e+00  0.000000000000000e+00  0.000000000000000e+00  0.000000000000000e+00
71  0.000000000000000e+00  0.000000000000000e+00  0.000000000000000e+00  0.000000000000000e+00  0.000000000000000e+00  0.000000000000000e+00
72  0.000000000000000e+00  0.000000000000000e+00  0.000000000000000e+00  0.000000000000000e+00  0.000000000000000e+00  0.000000000000000e+00
73  0.000000000000000e+00  0.000000000000000e+00  0.000000000000000e+00  0.000000000000000e+00  0.000000000000000e+00  0.000000000000000e+00
74  0.000000000000000e+00  0.000000000000000e+00  0.000000000000000e+00  0.000000000000000e+00  0.000000000000000e+00  0.000000000000000e+00
75  0.000000000000000e+00  0.000000000000000e+00  0.000000000000000e+00  0.000000000000000e+00  0.000000000000000e+00  0.000000000000000e+00
76  0.000000000000000e+00  0.000000000000000e+00  0.000000000000000e+00  0.000000000000000e+00  0.000000000000000e+00  0.000000000000000e+00
77  0.000000000000000e+00  0.000000000000000e+00  0.000000000000000e+00  0.000000000000000e+00  0.000000000000000e+00  0.000000000000000e+00
78  0.000000000000000e+00  0.000000000000000e+00  0.000000000000000e+00  0.000000000000000e+00  0.000000000000000e+00  0.000000000000000e+00
79  0.000000000000000e+00  0.000000000000000e+00  0.000000000000000e+00  0.000000000000000e+00  0.000000000000000e+00  0.000000000000000e+00
80  0.000000000000000e+00  0.000000000000000e+00  0.000000000000000e+00  0.000000000000000e+00  0.000000000000000e+00  0.000000000000000e+00
81  0.000000000000000e+00  0.000000000000000e+00  0.000000000000000e+00  0.000000000000000e+00  0.000000000000000e+00  0.000000000000000e+00
82  0.000000000000000e+00  0.000000000000000e+00  0.000000000000000e+00  0.000000000000000e+00  0.000000000000000e+00  0.000000000000000e+00
83  0.000000000000000e+00  0.000000000000000e+00  0.000000000000000e+00  0.000000000000000e+00  0.000000000000000e+00  0.000000000000000e+00
84  0.000000000000000e+00  0.000000000000000e+00  0.000000000000000e+00  0.000000000000000e+00  0.000000000000000e+00  0.000000000000000e+00
85  0.000000000000000e+00  0.000000000000000e+00  0.000000000000000e+00  0.000000000000000e+00  0.000000000000000e+00  0.000000000000000e+00
86  0.000000000000000e+00  0.000000000000000e+00  0.000000000000000e+00  0.000000000000000e+00  0.000000000000000e+00  0.000000000000000e+00
87  0.000000000000000e+00  0.000000000000000e+00  0.000000000000000e+00  0.000000000000000e+00  0.000000000000000e+00  0.000000000000000e+00
88  0.000000000000000e+00  0.000000000000000e+00  0.000000000000000e+00  0.000000000000000e+00  0.000000000000000e+00  0.000000000000000e+00
89  0.000000000000000e+00  0.000000000000000e+00  0.000000000000000e+00  0.000000000000000e+00  0.000000000000000e+00  0.000000000000000e+00
90  0.000000000000000e+00  0.000000000000000e+00  0.000000000000000e+00  0.000000000000000e+00  0.000000000000000e+00  0.000000000000000e+00
91  0.000000000000000e+00  0.000000000000000e+00  0.000000000000000e+00  0.000000000000000e+00  0.000000000000000e+00  0.000000000000000e+00
92  0.000000000000000e+00  0.000000000000000e+00  0.000000000000000e+00  0.000000000000000e+00  0.000000000000000e+00  0.000000000000000e+00
93  0.000000000000000e+00  0.000000000000000e+00  0.000000000000000e+00  0.000000000000000e+00  0.000000000000000e+00  0.000000000000000e+00
94  0.000000000000000e+00  0.000000000000000e+00  0.000000000000000e+00  0.000000000000000e+00  0.000000000000000e+00  0.000000000000000e+00
95  0.000000000000000e+00  0.000000000000000e+00  0.000000000000000e+00  0.000000000000000e+00  0.000000000000000e+00  0.000000000000000e+00
96  0.000000000000000e+00  0.000000000000000e+00  0.000000000000000e+00  0.000000000000000e+00  0.000000000000000e+00  0.000000000000000e+00
97  0.000000000000000e+00  0.000000000000000e+00  0.000000000000000e+00  0.000000000000000e+00  0.000000000000000e+00  0.000000000000000e+00
98  0.000000000000000e+00  0.000000000000000e+00  0.000000000000000e+00  0.000000000000000e+00  0.000000000000000e+00  0.000000000000000e+00
99  0.000000000000000e+00  0.000000000000000e+00  0.000000000000000e+00  0.000000000000000e+00  0.000000000000000e+00  0.000000000000000e+00
100  0.000000000000000e+00  0.000000000000000e+00  0.000000000000000e+00  0.000000000000000e+00  0.000000000000000e+00  0.000000000000000e+00
101  0.000000000000000e+00  0.000000000000000e+00  0.000000000000000e+00  0.000000000000000e+00  0.000000000000000e+00  0.000000000000000e+00
102  0.000000000000000e+00  0.000000000000000e+00  0.000000000000000e+00  0.000000000000000e+00  0.000000000000000e+00  0.000000000000000e+00
103  0.000000000000000e+00  0.000000000000000e+00  0.000000000000000e+00  0.000000000000000e+00  0.000000000000000e+00  0.000000000000000e+00
104  0.000000000000000e+00  0.000000000000000e+00  0.000000000000000e+00  0.000000000000000e+00  0.000000000000000e+00  0.000000000000000e+00
105  0.000000000000000e+00  0.000000000000000e+00  0.000000000000000e+00  0.000000000000000e+00  0.000000000000000e+00  0.000000000000000e+00
106  0.000000000000000e+00  0.000000000000000e+00  0.000000000000000e+00  0.000000000000000e+00  0.000000000000000e+00  0.000000000000000e+00
107  0.000000000000000e+00  0.000000000000000e+00  0.000000000000000e+00  0.000000000000000e+00  0.000000000000000e+00  0.000000000000000e+00
108  0.000000000000000e+00  0.000000000000000e+00  0.000000000000000e+00  0.000000000000000e+00  0.000000000000000e+00  0.000000000000000e+00
109  0.000000000000000e+00  0.000000000000000e+00  0.000000000000000e+00  0.000000000000000e+00  0.000000000000000e+00  0.000000000000000e+00
110  0.000000000000000e+00  0.000000000000000e+00  0.000000000000000e+00  0.000000000000000e+00  0.000000000000000e+00  0.000000000000000e+00
111  0.000000000000000e+00  0.000000000000000e+00  0.000000000000000e+00  0.000000000000000e+00  0.000000000000000e+00  0.000000000000000e+00
112  0.000000000000000e+00  0.000000000000000e+00  0.000000000000000e+00  0.000000000000000e+00  0.000000000000000e+00  0.000000000000000e+00
113  0.000000000000000e+00  0.000000000000000e+00  0.000000000000000e+00  0.000000000000000e+00  0.000000000000000e+00  0.000000000000000e+00
114  0.000000000000000e+00  0.000000000000000e+00  0.000000000000000e+00  0.000000000000000e+00  0.000000000000000e+00  0.000000000000000e+00
115  0.000000000000000e+00  0.000000000000000e+00  0.000000000000000e+00  0.000000000000000e+00  0.000000000000000e+00  0.000000000000000e+00
116  0.000000000000000e+00  0.000000000000000e+00  0.000000000000000e+00  0.000000000000000e+00  0.000000000000000e+00  0.000000000000000e+00
117  0.000000000000000e+00  0.000000000000000e+00  0.000000000000000e+00  0.000000000000000e+00  0.000000000000000e+00  0.000000000000000e+00
118  0.000000000000000e+00  0.000000000000000e+00  0.000000000000000e+00  0.000000000000000e+00  0.000000000000000e+00  0.000000000000000e+00
119  0.000000000000000e+00  0.000000000000000e+00  0.000000000000000e+00  0.000000000000000e+00  0.000000000000000e+00  0.000000000000000e+00
120  0.000000000000000e+00  0.000000000000000e+00  0.000000000000000e+00  0.000000000000000e+00  0.000000000000000e+00  0.000000000000000e+00
121  0.000000000000000e+00  0.000000000000000e+00  0.000000000000000e+00  0.000000000000000e+00  0.000000000000000e+00  0.000000000000000e+00
122  0.000000000000000e+00  0.000000000000000e+00  0.000000000000000e+00  0.000000000000000e+00  0.000000000000000e+00  0.000000000000000e+00
123  0.000000000000000e+00  0.000000000000000e+00  0.000000000000000e+00  0.000000000000000e+00  0.000000000000000e+00  0.000000000000000e+00
124  0.000000000000000e+00  0.000000000000000e+00  0.000000000000000e+00  0.000000000000000e+00  0.000000000000000e+00  0.000000000000000e+00
125  0.000000000000000e+00  0.000000000000000e+00  0.000000000000000e+00  0.000000000000000e+00  0.000000000000000e+00  0.000000000000000e+00
126  0.000000000000000e+00  0.000000000000000e+00  0.000000000000000e+00  0.000000000000000e+00  0.000000000000000e+00  0.000000000000000e+00
127  0.000000000000000e+00  0.000000000000000e+00  0.000000000000000e+00  0.000000000000000e+00  0.000000000000000e+00  0.000000000000000e+00
128  0.000000000000000e+00  0.000000000000000e+00  0.000000000000000e+00  0.000000000000000e+00  0.000000000000000e+00  0.000000000000000e+00
129  0.000000000000000e+00  0.000000000000000e+00  0.000000000000000e+00  0.000000000000000e+00  0.000000000000000e+00  0.000000000000000e+00