# LAMMPS data file
156 atoms
156 ellipsoids
153 bonds

4 atom types
1 bond types

# System size
0.000000 33.000000 xlo xhi
0.000000 33.000000 ylo yhi
0.000000 33.000000 zlo zhi

Masses

1 3.1575
2 3.1575
3 3.1575
4 3.1575

# Atom-ID, type, position, molecule-ID, ellipsoid flag, density
Atoms

1 3 -1.056825637817383e+00  5.223540782928467e+00  1.033683395385742e+01 1 1 1
2 2 -7.503919005393982e-01  4.782287597656250e+00  1.032835483551025e+01 1 1 1
3 4 -6.156498193740845e-01  4.283319473266602e+00  1.018155288696289e+01 1 1 1
4 1 -6.073846220970154e-01  3.854189395904541e+00  9.858360290527344e+00 1 1 1
5 3 -6.323385834693909e-01  3.595863580703735e+00  9.387908935546875e+00 1 1 1
6 2 -5.845879316329956e-01  3.544416904449463e+00  8.855159759521484e+00 1 1 1
7 1 -3.859372437000275e-01  3.657351016998291e+00  8.368931770324707e+00 1 1 1
8 2 -1.540388725697994e-02  3.829747438430786e+00  8.020085334777832e+00 1 1 1
9 2  4.826207458972931e-01  3.933988094329834e+00  7.847530364990234e+00 1 1 1
10 4  1.015346169471741e+00  3.868448972702026e+00  7.823094367980957e+00 1 1 1
11 1  1.476768851280212e+00  3.596008300781250e+00  7.862318515777588e+00 1 1 1
12 2  1.788002490997314e+00  3.158063888549805e+00  7.856589794158936e+00 1 1 1
13 2  1.927210330963135e+00  2.658968448638916e+00  7.714399814605713e+00 1 1 1
14 2  1.937899351119995e+00  2.226307392120361e+00  7.396012306213379e+00 1 1 1
15 3  1.912396550178528e+00  1.962337374687195e+00  6.928773403167725e+00 1 1 1
16 4  1.956813693046570e+00  1.905365705490112e+00  6.396343708038330e+00 1 1 1
17 1  2.150696277618408e+00  2.014925718307495e+00  5.907392501831055e+00 1 1 1
18 2  2.516762971878052e+00  2.187389850616455e+00  5.553852558135986e+00 1 1 1
19 3  3.012346267700195e+00  2.295115709304810e+00  5.376462459564209e+00 1 1 1
20 1  3.545583009719849e+00  2.235186576843262e+00  5.348791599273682e+00 1 1 1
21 3  4.010265827178955e+00  1.968347311019897e+00  5.387671470642090e+00 1 1 1
22 1  4.326302528381348e+00  1.533804297447205e+00  5.384607791900635e+00 1 1 1
23 1  4.469998359680176e+00  1.034675836563110e+00  5.247032642364502e+00 1 1 1
24 3  4.483146190643311e+00  5.985333919525146e-01  4.933621406555176e+00 1 1 1
25 3  4.457192420959473e+00  3.290323913097382e-01  4.469492912292480e+00 1 1 1
26 3  4.498411655426025e+00  2.664398550987244e-01  3.937428474426270e+00 1 1 1
27 2  4.687510013580322e+00  3.725475966930389e-01  3.445815801620483e+00 1 1 1
28 1  5.319139957427979e+00 -2.693800330162048e-01  2.736103773117065e+00 1 1 1
29 1  5.623188018798828e+00 -5.259691476821899e-01  2.374981880187988e+00 1 1 1
30 1  5.810832023620605e+00 -9.536907672882080e-01  2.109412193298340e+00 1 1 1
31 1  5.790717601776123e+00 -1.450910449028015e+00  1.906800389289856e+00 1 1 1
32 1  5.550396442413330e+00 -1.889598608016968e+00  1.710635066032410e+00 1 1 1
33 1  5.137321472167969e+00 -2.897459030151367e+00  1.383793711662292e+00 1 1 1
34 1  4.908493995666504e+00 -3.068221569061279e+00  9.286190271377563e-01 1 1 1
35 1  4.870387554168701e+00 -3.363449811935425e+00  4.813571274280548e-01 1 1 1
36 4  4.961562633514404e+00 -3.790307283401489e+00  1.680458337068558e-01 1 1 1
37 1  5.071291446685791e+00 -4.305873870849609e+00  6.390106678009033e-02 1 1 1
38 3  5.081863403320312e+00 -4.833523750305176e+00  1.645433604717255e-01 1 1 1
39 4  4.913256168365479e+00 -5.292109489440918e+00  3.880962729454041e-01 1 1 1
40 3  4.553469657897949e+00 -5.626645565032959e+00  6.057064533233643e-01 1 1 1
41 3  4.063194751739502e+00 -5.829299449920654e+00  6.908109784126282e-01 1 1 1
42 3  3.552680015563965e+00 -5.942381381988525e+00  5.672447085380554e-01 1 1 1
43 2  3.139811515808105e+00 -6.042191982269287e+00  2.382603287696838e-01 1 1 1
44 3  2.905398368835449e+00 -6.210036277770996e+00 -2.151079624891281e-01 1 1 1
45 3  2.862563848495483e+00 -6.501475811004639e+00 -6.645022034645081e-01 1 1 1
46 4  2.951451778411865e+00 -6.925025939941406e+00 -9.828937649726868e-01 1 1 1
47 1  3.062378406524658e+00 -7.439070224761963e+00 -1.093296647071838e+00 1 1 1
48 4  3.077031612396240e+00 -7.967535972595215e+00 -9.974033236503601e-01 1 1 1
49 2  2.913912296295166e+00 -8.428972244262695e+00 -7.756546139717102e-01 1 1 1
50 1  2.558947563171387e+00 -8.767292022705078e+00 -5.561519861221313e-01 1 1 1
51 4  2.070998907089233e+00 -8.973310470581055e+00 -4.659090936183929e-01 1 1 1
52 2  1.559351682662964e+00 -9.087943077087402e+00 -5.833379626274109e-01 1 1 1
53 3  8.118800163269043e+00  6.612129688262939e+00 -7.861851692199707e+00 2 1 1
54 2  8.454985618591309e+00  6.319303512573242e+00 -7.562054634094238e+00 2 1 1
55 4  8.743260383605957e+00  6.201482772827148e+00 -7.124202251434326e+00 2 1 1
56 1  8.862539291381836e+00  6.210139274597168e+00 -6.600367546081543e+00 2 1 1
57 3  8.755843162536621e+00  6.248659610748291e+00 -6.075229644775391e+00 2 1 1
58 2  8.452041625976562e+00  6.209043025970459e+00 -5.633799076080322e+00 2 1 1
59 1  8.054920196533203e+00  6.013021469116211e+00 -5.329535007476807e+00 2 1 1
60 3  7.703766345977783e+00  5.641770839691162e+00 -5.163592815399170e+00 2 1 1
61 2  7.520321369171143e+00  5.143014907836914e+00 -5.084640026092529e+00 2 1 1
62 1  7.562596321105957e+00  4.612814903259277e+00 -5.008329868316650e+00 2 1 1
63 4  7.802985668182373e+00  4.159394264221191e+00 -4.849293708801270e+00 2 1 1
64 1  8.138438224792480e+00  3.861610174179077e+00 -4.553515911102295e+00 2 1 1
65 3  8.429917335510254e+00  3.739297628402710e+00 -4.119059085845947e+00 2 1 1
66 4  8.555039405822754e+00  3.745578765869141e+00 -3.596549034118652e+00 2 1 1
67 3  8.454630851745605e+00  3.784754037857056e+00 -3.070210695266724e+00 2 1 1
68 3  8.155183792114258e+00  3.748591423034668e+00 -2.625552415847778e+00 2 1 1
69 4  7.758870124816895e+00  3.557538986206055e+00 -2.317106246948242e+00 2 1 1
70 2  7.404556274414062e+00  3.190812110900879e+00 -2.147794723510742e+00 2 1 1
71 2  7.215211391448975e+00  2.694393873214722e+00 -2.067555427551270e+00 2 1 1
72 3  7.251233100891113e+00  2.163637399673462e+00 -1.992399811744690e+00 2 1 1
73 4  7.487195014953613e+00  1.706758260726929e+00 -1.836554169654846e+00 2 1 1
74 2  7.821813106536865e+00  1.404046416282654e+00 -1.544960021972656e+00 2 1 1
75 1  8.116361618041992e+00  1.277169942855835e+00 -1.113831639289856e+00 2 1 1
76 1  8.247319221496582e+00  1.281042695045471e+00 -5.927770733833313e-01 2 1 1
77 2  8.153241157531738e+00  1.320802450180054e+00 -6.525734812021255e-02 2 1 1
78 4  7.858234405517578e+00  1.288025259971619e+00  3.826032280921936e-01 2 1 1
79 2  7.462772846221924e+00  1.101866960525513e+00  6.950948834419250e-01 2 1 1
80 1  7.331964015960693e+00  5.909411907196045e-01  1.707087516784668e+00 2 1 1
81 1  7.295480728149414e+00  3.118290305137634e-01  2.164741516113281e+00 2 1 1
82 1  7.154707431793213e+00  2.280595302581787e-01  2.676452636718750e+00 2 1 1
83 1  6.857935428619385e+00  2.955563366413116e-01  3.119237422943115e+00 2 1 1
84 1  6.412758827209473e+00  4.127390384674072e-01  3.396301031112671e+00 2 1 1
85 3  5.595381736755371e+00  7.216349244117737e-01  4.148605823516846e+00 2 1 1
86 2  5.276963710784912e+00  1.154396891593933e+00  4.150415897369385e+00 2 1 1
87 2  4.810657024383545e+00  1.418535113334656e+00  4.111697673797607e+00 2 1 1
88 2  4.277238845825195e+00  1.475640058517456e+00  4.140941619873047e+00 2 1 1
89 4  3.782888889312744e+00  1.366171240806580e+00  4.320815086364746e+00 2 1 1
90 4  3.419079780578613e+00  1.193732023239136e+00  4.676601409912109e+00 2 1 1
91 2  3.227623939514160e+00  1.085871815681458e+00  5.166834354400635e+00 2 1 1
92 4  3.184785604476929e+00  1.145684599876404e+00  5.699128627777100e+00 2 1 1
93 2  3.210518121719360e+00  1.412400245666504e+00  6.164811611175537e+00 2 1 1
94 3  3.198606252670288e+00  1.846818208694458e+00  6.480786323547363e+00 2 1 1
95 4  3.057161569595337e+00  2.345912694931030e+00  6.620601177215576e+00 2 1 1
96 1  2.743540525436401e+00  2.782163381576538e+00  6.625002861022949e+00 2 1 1
97 2  2.280461311340332e+00  3.051881074905396e+00  6.585930824279785e+00 2 1 1
98 3  1.747499823570251e+00  3.114540338516235e+00  6.611946582794189e+00 2 1 1
99 3  1.250674843788147e+00  3.008539915084839e+00  6.786977291107178e+00 2 1 1
100 3  8.823857307434082e-01  2.836122512817383e+00  7.138071060180664e+00 2 1 1
101 4  6.861031651496887e-01  2.724867582321167e+00  7.625751495361328e+00 2 1 1
102 1  6.400473117828369e-01  2.779072999954224e+00  8.158284187316895e+00 2 1 1
103 3  6.652532219886780e-01  3.040252447128296e+00  8.627193450927734e+00 2 1 1
104 3  6.558033227920532e-01  3.471147537231445e+00  8.947940826416016e+00 2 1 1
105 3 -9.886540472507477e-02 -1.092299365997314e+01 -1.930854439735413e+00 3 1 1
106 2  1.437571644783020e-01 -1.075933933258057e+01 -1.480279564857483e+00 3 1 1
107 4  5.627024173736572e-01 -1.066069221496582e+01 -1.158689856529236e+00 3 1 1
108 1  1.074858307838440e+00 -1.054525470733643e+01 -1.044359922409058e+00 3 1 1
109 3  1.561690092086792e+00 -1.033761882781982e+01 -1.137080430984497e+00 3 1 1
110 2  1.914191246032715e+00 -9.997373580932617e+00 -1.357556462287903e+00 3 1 1
111 1  2.074554681777954e+00 -9.534537315368652e+00 -1.578377604484558e+00 3 1 1
112 3  2.057878494262695e+00 -9.005683898925781e+00 -1.671742796897888e+00 3 1 1
113 1  1.946439266204834e+00 -8.492439270019531e+00 -1.558303952217102e+00 3 1 1
114 4  1.858644366264343e+00 -8.070547103881836e+00 -1.237375497817993e+00 3 1 1
115 3  1.903971433639526e+00 -7.780996799468994e+00 -7.870631217956543e-01 3 1 1
116 1  2.141073942184448e+00 -7.614543914794922e+00 -3.345643281936646e-01 3 1 1
117 4  2.556010723114014e+00 -7.515164375305176e+00 -7.985715754330158e-03 3 1 1
118 1  3.067092180252075e+00 -7.401291370391846e+00  1.124189943075180e-01 3 1 1
119 2  3.556200981140137e+00 -7.196966171264648e+00  2.477641962468624e-02 3 1 1
120 2  3.913583517074585e+00 -6.860534191131592e+00 -1.938087344169617e-01 3 1 1
121 3  4.079453468322754e+00 -6.400528430938721e+00 -4.164303243160248e-01 3 1 1
122 2  4.066805362701416e+00 -5.872453212738037e+00 -5.147286057472229e-01 3 1 1
123 2  3.956511974334717e+00 -5.357659816741943e+00 -4.074843227863312e-01 3 1 1
124 2  3.866449594497681e+00 -4.932442188262939e+00 -9.157222509384155e-02 3 1 1
125 1  3.906937122344971e+00 -4.639132022857666e+00  3.567858636379242e-01 3 1 1
126 2  4.138565063476562e+00 -4.469828605651855e+00  8.110253810882568e-01 3 1 1
127 4  4.549356937408447e+00 -4.369603157043457e+00  1.142538666725159e+00 3 1 1
128 1  5.059315204620361e+00 -4.257286071777344e+00  1.269080877304077e+00 3 1 1
129 4  5.550654888153076e+00 -4.056234359741211e+00  1.186518073081970e+00 3 1 1
130 4  5.912833690643311e+00 -3.723616600036621e+00  9.700036048889160e-01 3 1 1
131 4  6.084217548370361e+00 -3.266493082046509e+00  7.456390857696533e-01 3 1 1
132 1  6.787415981292725e+00 -2.445899009704590e+00  1.061877608299255e+00 3 1 1
133 1  7.103919029235840e+00 -2.049442052841187e+00  1.238878488540649e+00 3 1 1
134 1  7.419682502746582e+00 -1.617391586303711e+00  1.190729022026062e+00 3 1 1
135 1  7.601676940917969e+00 -1.168211460113525e+00  9.587848782539368e-01 3 1 1
136 1  7.567757129669189e+00 -7.268587350845337e-01  6.542490720748901e-01 3 1 1
137 3  7.663509845733643e+00  1.753158420324326e-01 -4.055599868297577e-02 3 1 1
138 1  7.329354286193848e+00  4.804907441139221e-01 -3.301108181476593e-01 3 1 1
139 3  7.095610618591309e+00  9.390491247177124e-01 -4.844199419021606e-01 3 1 1
140 4  7.062804698944092e+00  1.470131278038025e+00 -5.590065121650696e-01 3 1 1
141 4  7.254999160766602e+00  1.965276718139648e+00 -6.399704217910767e-01 3 1 1
142 3  7.610827922821045e+00  2.329739332199097e+00 -8.110105395317078e-01 3 1 1
143 1  8.006743431091309e+00  2.518360853195190e+00 -1.121460080146790e+00 3 1 1
144 2  8.303951263427734e+00  2.552794218063354e+00 -1.567706108093262e+00 3 1 1
145 3  8.401213645935059e+00  2.513323307037354e+00 -2.094703197479248e+00 3 1 1
146 3  8.273159980773926e+00  2.508221149444580e+00 -2.616449117660522e+00 3 1 1
147 1  7.980143547058105e+00  2.632823944091797e+00 -3.049184560775757e+00 3 1 1
148 2  7.645052433013916e+00  2.933058977127075e+00 -3.342943191528320e+00 3 1 1
149 2  7.406893253326416e+00  3.388212203979492e+00 -3.500395059585571e+00 3 1 1
150 1  7.367775440216064e+00  3.918720006942749e+00 -3.576106309890747e+00 3 1 1
151 2  7.554162979125977e+00  4.416325092315674e+00 -3.655696868896484e+00 3 1 1
152 4  7.906879901885986e+00  4.785291671752930e+00 -3.823315620422363e+00 3 1 1
153 1  8.303617477416992e+00  4.978839397430420e+00 -4.129647254943848e+00 3 1 1
154 4  8.605236053466797e+00  5.016711711883545e+00 -4.572695732116699e+00 3 1 1
155 3  8.708822250366211e+00  4.977852821350098e+00 -5.098441600799561e+00 3 1 1
156 2  8.586626052856445e+00  4.970396518707275e+00 -5.621642589569092e+00 3 1 1

# Atom-ID, translational, rotational velocity
Velocities

1  0.000000000000000e+00  0.000000000000000e+00  0.000000000000000e+00  0.000000000000000e+00  0.000000000000000e+00  0.000000000000000e+00
2  0.000000000000000e+00  0.000000000000000e+00  0.000000000000000e+00  0.000000000000000e+00  0.000000000000000e+00  0.000000000000000e+00
3  0.000000000000000e+00  0.000000000000000e+00  0.000000000000000e+00  0.000000000000000e+00  0.000000000000000e+00  0.000000000000000e+00
4  0.000000000000000e+00  0.000000000000000e+00  0.000000000000000e+00  0.000000000000000e+00  0.000000000000000e+00  0.000000000000000e+00
5  0.000000000000000e+00  0.000000000000000e+00  0.000000000000000e+00  0.000000000000000e+00  0.000000000000000e+00  0.000000000000000e+00
6  0.000000000000000e+00  0.000000000000000e+00  0.000000000000000e+00  0.000000000000000e+00  0.000000000000000e+00  0.000000000000000e+00
7  0.000000000000000e+00  0.000000000000000e+00  0.000000000000000e+00  0.000000000000000e+00  0.000000000000000e+00  0.000000000000000e+00
8  0.000000000000000e+00  0.000000000000000e+00  0.000000000000000e+00  0.000000000000000e+00  0.000000000000000e+00  0.000000000000000e+00
9  0.000000000000000e+00  0.000000000000000e+00  0.000000000000000e+00  0.000000000000000e+00  0.000000000000000e+00  0.000000000000000e+00
10  0.000000000000000e+00  0.000000000000000e+00  0.000000000000000e+00  0.000000000000000e+00  0.000000000000000e+00  0.000000000000000e+00
11  0.000000000000000e+00  0.000000000000000e+00  0.000000000000000e+00  0.000000000000000e+00  0.000000000000000e+00  0.000000000000000e+00
12  0.000000000000000e+00  0.000000000000000e+00  0.000000000000000e+00  0.000000000000000e+00  0.000000000000000e+00  0.000000000000000e+00
13  0.000000000000000e+00  0.000000000000000e+00  0.000000000000000e+00  0.000000000000000e+00  0.000000000000000e+00  0.000000000000000e+00
14  0.000000000000000e+00  0.000000000000000e+00  0.000000000000000e+00  0.000000000000000e+00  0.000000000000000e+00  0.000000000000000e+00
15  0.000000000000000e+00  0.000000000000000e+00  0.000000000000000e+00  0.000000000000000e+00  0.000000000000000e+00  0.000000000000000e+00
16  0.000000000000000e+00  0.000000000000000e+00  0.000000000000000e+00  0.000000000000000e+00  0.000000000000000e+00  0.000000000000000e+00
17  0.000000000000000e+00  0.000000000000000e+00  0.000000000000000e+00  0.000000000000000e+00  0.000000000000000e+00  0.000000000000000e+00
18  0.000000000000000e+00  0.000000000000000e+00  0.000000000000000e+00  0.000000000000000e+00  0.000000000000000e+00  0.000000000000000e+00
19  0.000000000000000e+00  0.000000000000000e+00  0.000000000000000e+00  0.000000000000000e+00  0.000000000000000e+00  0.000000000000000e+00
20  0.000000000000000e+00  0.000000000000000e+00  0.000000000000000e+00  0.000000000000000e+00  0.000000000000000e+00  0.000000000000000e+00
21  0.000000000000000e+00  0.000000000000000e+00  0.000000000000000e+00  0.000000000000000e+00  0.000000000000000e+00  0.000000000000000e+00
22  0.000000000000000e+00  0.000000000000000e+00  0.000000000000000e+00  0.000000000000000e+00  0.000000000000000e+00  0.000000000000000e+00
23  0.000000000000000e+00  0.000000000000000e+00  0.000000000000000e+00  0.000000000000000e+00  0.000000000000000e+00  0.000000000000000e+00
24  0.000000000000000e+00  0.000000000000000e+00  0.000000000000000e+00  0.000000000000000e+00  0.000000000000000e+00  0.000000000000000e+00
25  0.000000000000000e+00  0.000000000000000e+00  0.000000000000000e+00  0.000000000000000e+00  0.000000000000000e+00  0.000000000000000e+00
26  0.000000000000000e+00  0.000000000000000e+00  0.000000000000000e+00  0.000000000000000e+00  0.000000000000000e+00  0.000000000000000e+00
27  0.000000000000000e+00  0.000000000000000e+00  0.000000000000000e+00  0.000000000000000e+00  0.000000000000000e+00  0.000000000000000e+00
28  0.000000000000000e+00  0.000000000000000e+00  0.000000000000000e+00  0.000000000000000e+00  0.000000000000000e+00  0.000000000000000e+00
29  0.000000000000000e+00  0.000000000000000e+00  0.000000000000000e+00  0.000000000000000e+00  0.000000000000000e+00  0.000000000000000e+00
30  0.000000000000000e+00  0.000000000000000e+00  0.000000000000000e+00  0.000000000000000e+00  0.000000000000000e+00  0.000000000000000e+00
31  0.000000000000000e+00  0.000000000000000e+00  0.000000000000000e+00  0.000000000000000e+00  0.000000000000000e+00  0.000000000000000e+00
32  0.000000000000000e+00  0.000000000000000e+00  0.000000000000000e+00  0.000000000000000e+00  0.000000000000000e+00  0.000000000000000e+00
33  0.000000000000000e+00  0.000000000000000e+00  0.000000000000000e+00  0.000000000000000e+00  0.000000000000000e+00  0.000000000000000e+00
34  0.000000000000000e+00  0.000000000000000e+00  0.000000000000000e+00  0.000000000000000e+00  0.000000000000000e+00  0.000000000000000e+00
35  0.000000000000000e+00  0.000000000000000e+00  0.000000000000000e+00  0.000000000000000e+00  0.000000000000000e+00  0.000000000000000e+00
36  0.000000000000000e+00  0.000000000000000e+00  0.000000000000000e+00  0.000000000000000e+00  0.000000000000000e+00  0.000000000000000e+00
37  0.000000000000000e+00  0.000000000000000e+00  0.000000000000000e+00  0.000000000000000e+00  0.000000000000000e+00  0.000000000000000e+00
38  0.000000000000000e+00  0.000000000000000e+00  0.000000000000000e+00  0.000000000000000e+00  0.000000000000000e+00  0.000000000000000e+00
39  0.000000000000000e+00  0.000000000000000e+00  0.000000000000000e+00  0.000000000000000e+00  0.000000000000000e+00  0.000000000000000e+00
40  0.000000000000000e+00  0.000000000000000e+00  0.000000000000000e+00  0.000000000000000e+00  0.000000000000000e+00  0.000000000000000e+00
41  0.000000000000000e+00  0.000000000000000e+00  0.000000000000000e+00  0.000000000000000e+00  0.000000000000000e+00  0.000000000000000e+00
42  0.000000000000000e+00  0.000000000000000e+00  0.000000000000000e+00  0.000000000000000e+00  0.000000000000000e+00  0.000000000000000e+00
43  0.000000000000000e+00  0.000000000000000e+00  0.000000000000000e+00  0.000000000000000e+00  0.000000000000000e+00  0.000000000000000e+00
44  0.000000000000000e+00  0.000000000000000e+00  0.000000000000000e+00  0.000000000000000e+00  0.000000000000000e+00  0.000000000000000e+00
45  0.000000000000000e+00  0.000000000000000e+00  0.000000000000000e+00  0.000000000000000e+00  0.000000000000000e+00  0.000000000000000e+00
46  0.000000000000000e+00  0.000000000000000e+00  0.000000000000000e+00  0.000000000000000e+00  0.000000000000000e+00  0.000000000000000e+00
47  0.000000000000000e+00  0.000000000000000e+00  0.000000000000000e+00  0.000000000000000e+00  0.000000000000000e+00  0.000000000000000e+00
48  0.000000000000000e+00  0.000000000000000e+00  0.000000000000000e+00  0.000000000000000e+00  0.000000000000000e+00  0.000000000000000e+00
49  0.000000000000000e+00  0.000000000000000e+00  0.000000000000000e+00  0.000000000000000e+00  0.000000000000000e+00  0.000000000000000e+00
50  0.000000000000000e+00  0.000000000000000e+00  0.000000000000000e+00  0.000000000000000e+00  0.000000000000000e+00  0.000000000000000e+00
51  0.000000000000000e+00  0.000000000000000e+00  0.000000000000000e+00  0.000000000000000e+00  0.000000000000000e+00  0.000000000000000e+00
52  0.000000000000000e+00  0.000000000000000e+00  0.000000000000000e+00  0.000000000000000e+00  0.000000000000000e+00  0.000000000000000e+00
53  0.000000000000000e+00  0.000000000000000e+00  0.000000000000000e+00  0.000000000000000e+00  0.000000000000000e+00  0.000000000000000e+00
54  0.000000000000000e+00  0.000000000000000e+00  0.000000000000000e+00  0.000000000000000e+00  0.000000000000000e+00  0.000000000000000e+00
55  0.000000000000000e+00  0.000000000000000e+00  0.000000000000000e+00  0.000000000000000e+00  0.000000000000000e+00  0.000000000000000e+00
56  0.000000000000000e+00  0.000000000000000e+00  0.000000000000000e+00  0.000000000000000e+00  0.000000000000000e+00  0.000000000000000e+00
57  0.000000000000000e+00  0.000000000000000e+00  0.000000000000000e+00  0.000000000000000e+00  0.000000000000000e+00  0.000000000000000e+00
58  0.000000000000000e+00  0.000000000000000e+00  0.000000000000000e+00  0.000000000000000e+00  0.000000000000000e+00  0.000000000000000e+00
59  0.000000000000000e+00  0.000000000000000e+00  0.000000000000000e+00  0.000000000000000e+00  0.000000000000000e+00  0.000000000000000e+00
60  0.000000000000000e+00  0.000000000000000e+00  0.000000000000000e+00  0.000000000000000e+00  0.000000000000000e+00  0.000000000000000e+00
61  0.000000000000000e+00  0.000000000000000e+00  0.000000000000000e+00  0.000000000000000e+00  0.000000000000000e+00  0.000000000000000e+00
62  0.000000000000000e+00  0.000000000000000e+00  0.000000000000000e+00  0.000000000000000e+00  0.000000000000000e+00  0.000000000000000e+00
63  0.000000000000000e+00  0.000000000000000e+00  0.000000000000000e+00  0.000000000000000e+00  0.000000000000000e+00  0.000000000000000e+00
64  0.000000000000000e+00  0.000000000000000e+00  0.000000000000000e+00  0.000000000000000e+00  0.000000000000000e+00  0.000000000000000e+00
65  0.000000000000000e+00  0.000000000000000e+00  0.000000000000000e+00  0.000000000000000e+00  0.000000000000000e+00  0.000000000000000e+00
66  0.000000000000000e+00  0.000000000000000e+00  0.000000000000000e+00  0.000000000000000e+00  0.000000000000000e+00  0.000000000000000e+00
67  0.000000000000000e+00  0.000000000000000e+00  0.000000000000000e+00  0.000000000000000e+00  0.000000000000000e+00  0.000000000000000e+00
68  0.000000000000000e+00  0.000000000000000e+00  0.000000000000000e+00  0.000000000000000e+00  0.000000000000000e+00  0.000000000000000e+00
69  0.000000000000000e+00  0.000000000000000e+00  0.000000000000000e+00  0.000000000000000e+00  0.000000000000000e+00  0.000000000000000e+00
70  0.000000000000000e+00  0.000000000000000e+00  0.000000000000000e+00  0.000000000000000e+00  0.000000000000000e+00  0.000000000000000e+00
71  0.000000000000000e+00  0.000000000000000e+00  0.000000000000000e+00  0.000000000000000e+00  0.000000000000000e+00  0.000000000000000e+00
72  0.000000000000000e+00  0.000000000000000e+00  0.000000000000000e+00  0.000000000000000e+00  0.000000000000000e+00  0.000000000000000e+00
73  0.000000000000000e+00  0.000000000000000e+00  0.000000000000000e+00  0.000000000000000e+00  0.000000000000000e+00  0.000000000000000e+00
74  0.000000000000000e+00  0.000000000000000e+00  0.000000000000000e+00  0.000000000000000e+00  0.000000000000000e+00  0.000000000000000e+00
75  0.000000000000000e+00  0.000000000000000e+00  0.000000000000000e+00  0.000000000000000e+00  0.000000000000000e+00  0.000000000000000e+00
76  0.000000000000000e+00  0.000000000000000e+00  0.000000000000000e+00  0.000000000000000e+00  0.000000000000000e+00  0.000000000000000e+00
77  0.000000000000000e+00  0.000000000000000e+00  0.000000000000000e+00  0.000000000000000e+00  0.000000000000000e+00  0.000000000000000e+00
78  0.000000000000000e+00  0.000000000000000e+00  0.000000000000000e+00  0.000000000000000e+00  0.000000000000000e+00  0.000000000000000e+00
79  0.000000000000000e+00  0.000000000000000e+00  0.000000000000000e+00  0.000000000000000e+00  0.000000000000000e+00  0.000000000000000e+00
80  0.000000000000000e+00  0.000000000000000e+00  0.000000000000000e+00  0.000000000000000e+00  0.000000000000000e+00  0.000000000000000e+00
81  0.000000000000000e+00  0.000000000000000e+00  0.000000000000000e+00  0.000000000000000e+00  0.000000000000000e+00  0.000000000000000e+00
82  0.000000000000000e+00  0.000000000000000e+00  0.000000000000000e+00  0.000000000000000e+00  0.000000000000000e+00  0.000000000000000e+00
83  0.000000000000000e+00  0.000000000000000e+00  0.000000000000000e+00  0.000000000000000e+00  0.000000000000000e+00  0.000000000000000e+00
84  0.000000000000000e+00  0.000000000000000e+00  0.000000000000000e+00  0.000000000000000e+00  0.000000000000000e+00  0.000000000000000e+00
85  0.000000000000000e+00  0.000000000000000e+00  0.000000000000000e+00  0.000000000000000e+00  0.000000000000000e+00  0.000000000000000e+00
86  0.000000000000000e+00  0.000000000000000e+00  0.000000000000000e+00  0.000000000000000e+00  0.000000000000000e+00  0.000000000000000e+00
87  0.000000000000000e+00  0.000000000000000e+00  0.000000000000000e+00  0.000000000000000e+00  0.000000000000000e+00  0.000000000000000e+00
88  0.000000000000000e+00  0.000000000000000e+00  0.000000000000000e+00  0.000000000000000e+00  0.000000000000000e+00  0.000000000000000e+00
89  0.000000000000000e+00  0.000000000000000e+00  0.000000000000000e+00  0.000000000000000e+00  0.000000000000000e+00  0.000000000000000e+00
90  0.000000000000000e+00  0.000000000000000e+00  0.000000000000000e+00  0.000000000000000e+00  0.000000000000000e+00  0.000000000000000e+00
91  0.000000000000000e+00  0.000000000000000e+00  0.000000000000000e+00  0.000000000000000e+00  0.000000000000000e+00  0.000000000000000e+00
92  0.000000000000000e+00  0.000000000000000e+00  0.000000000000000e+00  0.000000000000000e+00  0.000000000000000e+00  0.000000000000000e+00
93  0.000000000000000e+00  0.000000000000000e+00  0.000000000000000e+00  0.000000000000000e+00  0.000000000000000e+00  0.000000000000000e+00
94  0.000000000000000e+00  0.000000000000000e+00  0.000000000000000e+00  0.000000000000000e+00  0.000000000000000e+00  0.000000000000000e+00
95  0.000000000000000e+00  0.000000000000000e+00  0.000000000000000e+00  0.000000000000000e+00  0.000000000000000e+00  0.000000000000000e+00
96  0.000000000000000e+00  0.000000000000000e+00  0.000000000000000e+00  0.000000000000000e+00  0.000000000000000e+00  0.000000000000000e+00
97  0.000000000000000e+00  0.000000000000000e+00  0.000000000000000e+00  0.000000000000000e+00  0.000000000000000e+00  0.000000000000000e+00
98  0.000000000000000e+00  0.000000000000000e+00  0.000000000000000e+00  0.000000000000000e+00  0.000000000000000e+00  0.000000000000000e+00
99  0.000000000000000e+00  0.000000000000000e+00  0.000000000000000e+00  0.000000000000000e+00  0.000000000000000e+00  0.000000000000000e+00
100  0.000000000000000e+00  0.000000000000000e+00  0.000000000000000e+00  0.000000000000000e+00  0.000000000000000e+00  0.000000000000000e+00
101  0.000000000000000e+00  0.000000000000000e+00  0.000000000000000e+00  0.000000000000000e+00  0.000000000000000e+00  0.000000000000000e+00
102  0.000000000000000e+00  0.000000000000000e+00  0.000000000000000e+00  0.000000000000000e+00  0.000000000000000e+00  0.000000000000000e+00
103  0.000000000000000e+00  0.000000000000000e+00  0.000000000000000e+00  0.000000000000000e+00  0.000000000000000e+00  0.000000000000000e+00
104  0.000000000000000e+00  0.000000000000000e+00  0.000000000000000e+00  0.000000000000000e+00  0.000000000000000e+00  0.000000000000000e+00
105  0.000000000000000e+00  0.000000000000000e+00  0.000000000000000e+00  0.000000000000000e+00  0.000000000000000e+00  0.000000000000000e+00
106  0.000000000000000e+00  0.000000000000000e+00  0.000000000000000e+00  0.000000000000000e+00  0.000000000000000e+00  0.000000000000000e+00
107  0.000000000000000e+00  0.000000000000000e+00  0.000000000000000e+00  0.000000000000000e+00  0.000000000000000e+00  0.000000000000000e+00
108  0.000000000000000e+00  0.000000000000000e+00  0.000000000000000e+00  0.000000000000000e+00  0.000000000000000e+00  0.000000000000000e+00
109  0.000000000000000e+00  0.000000000000000e+00  0.000000000000000e+00  0.000000000000000e+00  0.000000000000000e+00  0.000000000000000e+00
110  0.000000000000000e+00  0.000000000000000e+00  0.000000000000000e+00  0.000000000000000e+00  0.000000000000000e+00  0.000000000000000e+00
111  0.000000000000000e+00  0.000000000000000e+00  0.000000000000000e+00  0.000000000000000e+00  0.000000000000000e+00  0.000000000000000e+00
112  0.000000000000000e+00  0.000000000000000e+00  0.000000000000000e+00  0.000000000000000e+00  0.000000000000000e+00  0.000000000000000e+00
113  0.000000000000000e+00  0.000000000000000e+00  0.000000000000000e+00  0.000000000000000e+00  0.000000000000000e+00  0.000000000000000e+00
114  0.000000000000000e+00  0.000000000000000e+00  0.000000000000000e+00  0.000000000000000e+00  0.000000000000000e+00  0.000000000000000e+00
115  0.000000000000000e+00  0.000000000000000e+00  0.000000000000000e+00  0.000000000000000e+00  0.000000000000000e+00  0.000000000000000e+00
116  0.000000000000000e+00  0.000000000000000e+00  0.000000000000000e+00  0.000000000000000e+00  0.000000000000000e+00  0.000000000000000e+00
117  0.000000000000000e+00  0.000000000000000e+00  0.000000000000000e+00  0.000000000000000e+00  0.000000000000000e+00  0.000000000000000e+00
118  0.000000000000000e+00  0.000000000000000e+00  0.000000000000000e+00  0.000000000000000e+00  0.000000000000000e+00  0.000000000000000e+00
119  0.000000000000000e+00  0.000000000000000e+00  0.000000000000000e+00  0.000000000000000e+00  0.000000000000000e+00  0.000000000000000e+00
120  0.000000000000000e+00  0.000000000000000e+00  0.000000000000000e+00  0.000000000000000e+00  0.000000000000000e+00  0.000000000000000e+00
121  0.000000000000000e+00  0.000000000000000e+00  0.000000000000000e+00  0.000000000000000e+00  0.000000000000000e+00  0.000000000000000e+00