# LAMMPS data file
147 atoms
147 ellipsoids
144 bonds

4 atom types
1 bond types

# System size
0.000000 32.000000 xlo xhi
0.000000 32.000000 ylo yhi
0.000000 32.000000 zlo zhi

Masses

1 3.1575
2 3.1575
3 3.1575
4 3.1575

# Atom-ID, type, position, molecule-ID, ellipsoid flag, density
Atoms

1 3 -3.596248388290405e+00  6.247600078582764e+00  8.589353561401367e+00 1 1 1
2 2 -3.124628305435181e+00  6.015298366546631e+00  8.478525161743164e+00 1 1 1
3 4 -2.791441440582275e+00  5.603239059448242e+00  8.389695167541504e+00 1 1 1
4 1 -2.659808397293091e+00  5.104685783386230e+00  8.238739013671875e+00 1 1 1
5 3 -2.716249465942383e+00  4.645699024200439e+00  7.965171337127686e+00 1 1 1
6 2 -2.875777006149292e+00  4.337370395660400e+00  7.555095672607422e+00 1 1 1
7 1 -3.014309644699097e+00  4.233482360839844e+00  7.046469211578369e+00 1 1 1
8 2 -3.015739202499390e+00  4.310243606567383e+00  6.514692306518555e+00 1 1 1
9 2 -2.815981149673462e+00  4.475138187408447e+00  6.043974876403809e+00 1 1 1
10 4 -2.427428483963013e+00  4.602194309234619e+00  5.695304393768311e+00 1 1 1
11 1 -1.934250473976135e+00  4.579854965209961e+00  5.483254909515381e+00 1 1 1
12 2 -1.460252881050110e+00  4.353275775909424e+00  5.370670318603516e+00 1 1 1
13 2 -1.122034072875977e+00  3.945217609405518e+00  5.282382011413574e+00 1 1 1
14 2 -9.846193194389343e-01  3.447410106658936e+00  5.134119033813477e+00 1 1 1
15 3 -1.036641597747803e+00  2.985638380050659e+00  4.864448070526123e+00 1 1 1
16 4 -1.194924831390381e+00  2.672032833099365e+00  4.457879066467285e+00 1 1 1
17 1 -1.335746765136719e+00  2.562424898147583e+00  3.951105356216431e+00 1 1 1
18 2 -1.342189788818359e+00  2.635134935379028e+00  3.418775320053101e+00 1 1 1
19 3 -1.148223519325256e+00  2.799200057983398e+00  2.945347070693970e+00 1 1 1
20 1 -7.640973329544067e-01  2.929003715515137e+00  2.592792034149170e+00 1 1 1
21 3 -2.722734808921814e-01  2.911931037902832e+00  2.377235651016235e+00 1 1 1
22 1  2.039948701858521e-01  2.691087484359741e+00  2.262727975845337e+00 1 1 1
23 1  5.471924543380737e-01  2.287103176116943e+00  2.174955368041992e+00 1 1 1
24 3  6.904542446136475e-01  1.790144443511963e+00  2.029445171356201e+00 1 1 1
25 3  6.428154110908508e-01  1.325677394866943e+00  1.763537049293518e+00 1 1 1
26 3  4.859547019004822e-01  1.006836533546448e+00  1.360506653785706e+00 1 1 1
27 2  3.428975641727448e-01  8.914591670036316e-01  8.556197881698608e-01 1 1 1
28 1  5.330136418342590e-01  8.700300008058548e-02  7.867050915956497e-02 1 1 1
29 1  5.769516229629517e-01 -3.300275206565857e-01 -2.572490572929382e-01 1 1 1
30 1  5.715540051460266e-01 -1.273363709449768e+00 -8.888593912124634e-01 1 1 1
31 1  2.914573252201080e-01 -1.483773589134216e+00 -1.296222805976868e+00 1 1 1
32 1  2.261601835489273e-01 -1.741929888725281e+00 -1.762874841690063e+00 1 1 1
33 4  3.586300611495972e-01 -2.085150480270386e+00 -2.154479980468750e+00 1 1 1
34 1  5.965530276298523e-01 -2.518411397933960e+00 -2.365127086639404e+00 1 1 1
35 3  8.075703978538513e-01 -3.012462615966797e+00 -2.357799768447876e+00 1 1 1
36 4  8.696356415748596e-01 -3.515010833740234e+00 -2.178089857101440e+00 1 1 1
37 3  7.171750664710999e-01 -3.970485210418701e+00 -1.937260389328003e+00 1 1 1
38 3  3.661993741989136e-01 -4.341205120086670e+00 -1.769706249237061e+00 1 1 1
39 3 -9.188504517078400e-02 -4.621710300445557e+00 -1.782088160514832e+00 1 1 1
40 2 -5.249896645545959e-01 -4.840826988220215e+00 -2.012477636337280e+00 1 1 1
41 3 -8.105657696723938e-01 -5.050633907318115e+00 -2.416343212127686e+00 1 1 1
42 3 -8.819577693939209e-01 -5.306832790374756e+00 -2.883201122283936e+00 1 1 1
43 4 -7.540777921676636e-01 -5.647449493408203e+00 -3.278556823730469e+00 1 1 1
44 1 -5.173535346984863e-01 -6.078450679779053e+00 -3.495205402374268e+00 1 1 1
45 4 -3.037713766098022e-01 -6.571455478668213e+00 -3.493608474731445e+00 1 1 1
46 2 -2.363494336605072e-01 -7.074554443359375e+00 -3.317430973052979e+00 1 1 1
47 1 -3.826714754104614e-01 -7.531951904296875e+00 -3.076519250869751e+00 1 1 1
48 4 -7.290018200874329e-01 -7.905286788940430e+00 -2.905226230621338e+00 1 1 1
49 2 -1.185835838317871e+00 -8.188070297241211e+00 -2.911684274673462e+00 1 1 1
50 3  9.765270233154297e+00  6.259562492370605e+00 -7.549141883850098e+00 2 1 1
51 2  9.755778312683105e+00  5.849432468414307e+00 -7.202226638793945e+00 2 1 1
52 4  9.720405578613281e+00  5.619396686553955e+00 -6.717939376831055e+00 2 1 1
53 1  9.569474220275879e+00  5.583502292633057e+00 -6.203520774841309e+00 2 1 1
54 3  9.257176399230957e+00  5.682074069976807e+00 -5.777577400207520e+00 2 1 1
55 2  8.798850059509277e+00  5.804283142089844e+00 -5.525165557861328e+00 2 1 1
56 1  8.265513420104980e+00  5.830364704132080e+00 -5.465312480926514e+00 2 1 1
57 3  7.756600856781006e+00  5.677070140838623e+00 -5.544017314910889e+00 2 1 1
58 2  7.362251281738281e+00  5.329305171966553e+00 -5.654475212097168e+00 2 1 1
59 1  7.129051208496094e+00  4.845803737640381e+00 -5.678077697753906e+00 2 1 1
60 4  7.042505264282227e+00  4.336953163146973e+00 -5.528889179229736e+00 2 1 1
61 1  7.032191753387451e+00  3.922710418701172e+00 -5.186865329742432e+00 2 1 1
62 3  6.998918056488037e+00  3.687116861343384e+00 -4.705132007598877e+00 2 1 1
63 4  6.852086544036865e+00  3.646322727203369e+00 -4.189883708953857e+00 2 1 1
64 3  6.544333934783936e+00  3.742477416992188e+00 -3.760076999664307e+00 2 1 1
65 3  6.089341640472412e+00  3.865718603134155e+00 -3.502243041992188e+00 2 1 1
66 4  5.556814670562744e+00  3.895885944366455e+00 -3.437413692474365e+00 2 1 1
67 2  5.045856952667236e+00  3.748155593872070e+00 -3.513519525527954e+00 2 1 1
68 2  4.647386074066162e+00  3.405306816101074e+00 -3.624841928482056e+00 2 1 1
69 3  4.409682750701904e+00  2.924269914627075e+00 -3.652192592620850e+00 2 1 1
70 4  4.319740295410156e+00  2.414430141448975e+00 -3.508470058441162e+00 2 1 1
71 2  4.308615684509277e+00  1.996146917343140e+00 -3.171439409255981e+00 2 1 1
72 1  4.277286052703857e+00  1.754990816116333e+00 -2.692282438278198e+00 2 1 1
73 1  4.134577751159668e+00  1.709244489669800e+00 -2.176327943801880e+00 2 1 1
74 2  3.831407070159912e+00  1.802922725677490e+00 -1.742747902870178e+00 2 1 1
75 4  3.379779815673828e+00  1.927092194557190e+00 -1.479472160339355e+00 2 1 1
76 2  2.848130226135254e+00  1.961248278617859e+00 -1.409696578979492e+00 2 1 1
77 1  2.078026294708252e+00  1.791453957557678e+00 -5.941992402076721e-01 2 1 1
78 1  1.729063272476196e+00  1.772077322006226e+00 -1.861199587583542e-01 2 1 1
79 3  1.036095261573792e+00  1.859939098358154e+00  7.088176608085632e-01 2 1 1
80 2  5.587750673294067e-01  2.077884674072266e+00  8.242881298065186e-01 2 1 1
81 2  6.757188588380814e-02  2.092405080795288e+00  1.041608095169067e+00 2 1 1
82 2 -3.142976462841034e-01  1.961221218109131e+00  1.396032691001892e+00 2 1 1
83 4 -5.053341984748840e-01  1.797581195831299e+00  1.870835185050964e+00 2 1 1
84 4 -4.964392185211182e-01  1.726925253868103e+00  2.403377532958984e+00 2 1 1
85 2 -3.544771969318390e-01  1.839404702186584e+00  2.909188985824585e+00 2 1 1
86 4 -1.969192177057266e-01  2.155652761459351e+00  3.313997745513916e+00 2 1 1
87 2 -1.470650732517242e-01  2.618771791458130e+00  3.581810951232910e+00 2 1 1
88 3 -2.873923182487488e-01  3.116178274154663e+00  3.728683233261108e+00 2 1 1
89 4 -6.281031966209412e-01  3.522181272506714e+00  3.816718339920044e+00 2 1 1
90 1 -1.103231906890869e+00  3.745908975601196e+00  3.930264234542847e+00 2 1 1
91 2 -1.595810651779175e+00  3.765627384185791e+00  4.144006729125977e+00 2 1 1
92 3 -1.982101917266846e+00  3.637142896652222e+00  4.494621276855469e+00 2 1 1
93 3 -2.178951025009155e+00  3.472657918930054e+00  4.966721057891846e+00 2 1 1
94 3 -2.175040245056152e+00  3.397921800613403e+00  5.498763561248779e+00 2 1 1
95 4 -2.035343170166016e+00  3.504669189453125e+00  6.006479263305664e+00 2 1 1
96 1 -1.876431941986084e+00  3.815650224685669e+00  6.414797306060791e+00 2 1 1
97 3 -1.822210907936096e+00  4.276066303253174e+00  6.686472415924072e+00 2 1 1
98 3 -1.956730484962463e+00  4.774236202239990e+00  6.836041450500488e+00 2 1 1
99 3 -2.463208913803101e+00 -1.040100193023682e+01 -4.096667289733887e+00 3 1 1
100 2 -2.169658422470093e+00 -1.019193553924561e+01 -3.698166608810425e+00 3 1 1
101 4 -1.732824683189392e+00 -9.971203804016113e+00 -3.476564645767212e+00 3 1 1
102 1 -1.276668787002563e+00 -9.687303543090820e+00 -3.473033666610718e+00 3 1 1
103 3 -9.326013326644897e-01 -9.312670707702637e+00 -3.646179676055908e+00 3 1 1
104 2 -7.894011735916138e-01 -8.854295730590820e+00 -3.887089014053345e+00 3 1 1
105 1 -8.594985604286194e-01 -8.350951194763184e+00 -4.061479568481445e+00 3 1 1
106 3 -1.074313163757324e+00 -7.858489036560059e+00 -4.060119628906250e+00 3 1 1
107 1 -1.310362458229065e+00 -7.428625106811523e+00 -3.840561628341675e+00 3 1 1
108 4 -1.435999512672424e+00 -7.089330673217773e+00 -3.443356275558472e+00 3 1 1
109 3 -1.361469030380249e+00 -6.834070205688477e+00 -2.976485013961792e+00 3 1 1
110 1 -1.073266267776489e+00 -6.624533653259277e+00 -2.574342012405396e+00 3 1 1
111 4 -6.388564109802246e-01 -6.404900550842285e+00 -2.346853494644165e+00 3 1 1
112 1 -1.814017742872238e-01 -6.123254776000977e+00 -2.337468624114990e+00 3 1 1
113 2  1.672558039426804e-01 -5.751228332519531e+00 -2.506862878799438e+00 3 1 1
114 2  3.166440725326538e-01 -5.294790267944336e+00 -2.747762203216553e+00 3 1 1
115 3  2.518953680992126e-01 -4.791954517364502e+00 -2.925733089447021e+00 3 1 1
116 2  3.957096487283707e-02 -4.298424243927002e+00 -2.930165052413940e+00 3 1 1
117 2 -1.977342814207077e-01 -3.866283178329468e+00 -2.716575145721436e+00 3 1 1
118 2 -3.279323279857635e-01 -3.524365901947021e+00 -2.323059320449829e+00 3 1 1
119 1 -2.595533430576324e-01 -3.267205953598022e+00 -1.856281399726868e+00 3 1 1
120 2  2.328193187713623e-02 -3.057098865509033e+00 -1.450667262077332e+00 3 1 1
121 4  4.550883471965790e-01 -2.838516235351562e+00 -1.217316389083862e+00 3 1 1
122 1  9.137803316116333e-01 -2.559125185012817e+00 -1.202061176300049e+00 3 1 1
123 4  1.266972661018372e+00 -2.189690351486206e+00 -1.367690324783325e+00 3 1 1
124 4  1.422515869140625e+00 -1.735211610794067e+00 -1.608389735221863e+00 3 1 1
125 4  1.363199830055237e+00 -1.232969045639038e+00 -1.789792418479919e+00 3 1 1
126 1  1.943278789520264e+00 -2.588131129741669e-01 -1.828257083892822e+00 3 1 1
127 1  2.248342990875244e+00  1.775443702936172e-01 -1.900374412536621e+00 3 1 1
128 3  2.946794748306274e+00  1.032915234565735e+00 -2.163623809814453e+00 3 1 1
129 1  2.958390235900879e+00  1.453190088272095e+00 -2.498154640197754e+00 3 1 1
130 3  3.050037384033203e+00  1.963484525680542e+00 -2.639238119125366e+00 3 1 1
131 4  3.290101766586304e+00  2.443276166915894e+00 -2.609975576400757e+00 3 1 1
132 4  3.690552473068237e+00  2.783625602722168e+00 -2.498328685760498e+00 3 1 1
133 3  4.202493190765381e+00  2.928593635559082e+00 -2.423536777496338e+00 3 1 1
134 1  4.734601497650146e+00  2.896434068679810e+00 -2.490821838378906e+00 3 1 1
135 2  5.187869548797607e+00  2.772705554962158e+00 -2.751369953155518e+00 3 1 1
136 3  5.493379116058350e+00  2.677775859832764e+00 -3.183100938796997e+00 3 1 1
137 3  5.638103008270264e+00  2.721032619476318e+00 -3.698701143264771e+00 3 1 1
138 1  5.670393943786621e+00  2.959420919418335e+00 -4.179121971130371e+00 3 1 1
139 2  5.681097030639648e+00  3.375691413879395e+00 -4.518700122833252e+00 3 1 1
140 2  5.769360065460205e+00  3.885034799575806e+00 -4.665169239044189e+00 3 1 1
141 1  6.004838943481445e+00  4.367320537567139e+00 -4.639691829681396e+00 3 1 1
142 2  6.401247978210449e+00  4.712648868560791e+00 -4.528757095336914e+00 3 1 1
143 4  6.911157608032227e+00  4.863139629364014e+00 -4.451364517211914e+00 3 1 1
144 1  7.444093227386475e+00  4.835015296936035e+00 -4.513662338256836e+00 3 1 1
145 4  7.900728702545166e+00  4.712280273437500e+00 -4.768831253051758e+00 3 1 1
146 3  8.210793495178223e+00  4.614892005920410e+00 -5.196661472320557e+00 3 1 1
147 2  8.359684944152832e+00  4.653239250183105e+00 -5.711508274078369e+00 3 1 1

# Atom-ID, translational, rotational velocity
Velocities

1  0.000000000000000e+00  0.000000000000000e+00  0.000000000000000e+00  0.000000000000000e+00  0.000000000000000e+00  0.000000000000000e+00
2  0.000000000000000e+00  0.000000000000000e+00  0.000000000000000e+00  0.000000000000000e+00  0.000000000000000e+00  0.000000000000000e+00
3  0.000000000000000e+00  0.000000000000000e+00  0.000000000000000e+00  0.000000000000000e+00  0.000000000000000e+00  0.000000000000000e+00
4  0.000000000000000e+00  0.000000000000000e+00  0.000000000000000e+00  0.000000000000000e+00  0.000000000000000e+00  0.000000000000000e+00
5  0.000000000000000e+00  0.000000000000000e+00  0.000000000000000e+00  0.000000000000000e+00  0.000000000000000e+00  0.000000000000000e+00
6  0.000000000000000e+00  0.000000000000000e+00  0.000000000000000e+00  0.000000000000000e+00  0.000000000000000e+00  0.000000000000000e+00
7  0.000000000000000e+00  0.000000000000000e+00  0.000000000000000e+00  0.000000000000000e+00  0.000000000000000e+00  0.000000000000000e+00
8  0.000000000000000e+00  0.000000000000000e+00  0.000000000000000e+00  0.000000000000000e+00  0.000000000000000e+00  0.000000000000000e+00
9  0.000000000000000e+00  0.000000000000000e+00  0.000000000000000e+00  0.000000000000000e+00  0.000000000000000e+00  0.000000000000000e+00
10  0.000000000000000e+00  0.000000000000000e+00  0.000000000000000e+00  0.000000000000000e+00  0.000000000000000e+00  0.000000000000000e+00
11  0.000000000000000e+00  0.000000000000000e+00  0.000000000000000e+00  0.000000000000000e+00  0.000000000000000e+00  0.000000000000000e+00
12  0.000000000000000e+00  0.000000000000000e+00  0.000000000000000e+00  0.000000000000000e+00  0.000000000000000e+00  0.000000000000000e+00
13  0.000000000000000e+00  0.000000000000000e+00  0.000000000000000e+00  0.000000000000000e+00  0.000000000000000e+00  0.000000000000000e+00
14  0.000000000000000e+00  0.000000000000000e+00  0.000000000000000e+00  0.000000000000000e+00  0.000000000000000e+00  0.000000000000000e+00
15  0.000000000000000e+00  0.000000000000000e+00  0.000000000000000e+00  0.000000000000000e+00  0.000000000000000e+00  0.000000000000000e+00
16  0.000000000000000e+00  0.000000000000000e+00  0.000000000000000e+00  0.000000000000000e+00  0.000000000000000e+00  0.000000000000000e+00
17  0.000000000000000e+00  0.000000000000000e+00  0.000000000000000e+00  0.000000000000000e+00  0.000000000000000e+00  0.000000000000000e+00
18  0.000000000000000e+00  0.000000000000000e+00  0.000000000000000e+00  0.000000000000000e+00  0.000000000000000e+00  0.000000000000000e+00
19  0.000000000000000e+00  0.000000000000000e+00  0.000000000000000e+00  0.000000000000000e+00  0.000000000000000e+00  0.000000000000000e+00
20  0.000000000000000e+00  0.000000000000000e+00  0.000000000000000e+00  0.000000000000000e+00  0.000000000000000e+00  0.000000000000000e+00
21  0.000000000000000e+00  0.000000000000000e+00  0.000000000000000e+00  0.000000000000000e+00  0.000000000000000e+00  0.000000000000000e+00
22  0.000000000000000e+00  0.000000000000000e+00  0.000000000000000e+00  0.000000000000000e+00  0.000000000000000e+00  0.000000000000000e+00
23  0.000000000000000e+00  0.000000000000000e+00  0.000000000000000e+00  0.000000000000000e+00  0.000000000000000e+00  0.000000000000000e+00
24  0.000000000000000e+00  0.000000000000000e+00  0.000000000000000e+00  0.000000000000000e+00  0.000000000000000e+00  0.000000000000000e+00
25  0.000000000000000e+00  0.000000000000000e+00  0.000000000000000e+00  0.000000000000000e+00  0.000000000000000e+00  0.000000000000000e+00
26  0.000000000000000e+00  0.000000000000000e+00  0.000000000000000e+00  0.000000000000000e+00  0.000000000000000e+00  0.000000000000000e+00
27  0.000000000000000e+00  0.000000000000000e+00  0.000000000000000e+00  0.000000000000000e+00  0.000000000000000e+00  0.000000000000000e+00
28  0.000000000000000e+00  0.000000000000000e+00  0.000000000000000e+00  0.000000000000000e+00  0.000000000000000e+00  0.000000000000000e+00
29  0.000000000000000e+00  0.000000000000000e+00  0.000000000000000e+00  0.000000000000000e+00  0.000000000000000e+00  0.000000000000000e+00
30  0.000000000000000e+00  0.000000000000000e+00  0.000000000000000e+00  0.000000000000000e+00  0.000000000000000e+00  0.000000000000000e+00
31  0.000000000000000e+00  0.000000000000000e+00  0.000000000000000e+00  0.000000000000000e+00  0.000000000000000e+00  0.000000000000000e+00
32  0.000000000000000e+00  0.000000000000000e+00  0.000000000000000e+00  0.000000000000000e+00  0.000000000000000e+00  0.000000000000000e+00
33  0.000000000000000e+00  0.000000000000000e+00  0.000000000000000e+00  0.000000000000000e+00  0.000000000000000e+00  0.000000000000000e+00
34  0.000000000000000e+00  0.000000000000000e+00  0.000000000000000e+00  0.000000000000000e+00  0.000000000000000e+00  0.000000000000000e+00
35  0.000000000000000e+00  0.000000000000000e+00  0.000000000000000e+00  0.000000000000000e+00  0.000000000000000e+00  0.000000000000000e+00
36  0.000000000000000e+00  0.000000000000000e+00  0.000000000000000e+00  0.000000000000000e+00  0.000000000000000e+00  0.000000000000000e+00
37  0.000000000000000e+00  0.000000000000000e+00  0.000000000000000e+00  0.000000000000000e+00  0.000000000000000e+00  0.000000000000000e+00
38  0.000000000000000e+00  0.000000000000000e+00  0.000000000000000e+00  0.000000000000000e+00  0.000000000000000e+00  0.000000000000000e+00
39  0.000000000000000e+00  0.000000000000000e+00  0.000000000000000e+00  0.000000000000000e+00  0.000000000000000e+00  0.000000000000000e+00
40  0.000000000000000e+00  0.000000000000000e+00  0.000000000000000e+00  0.000000000000000e+00  0.000000000000000e+00  0.000000000000000e+00
41  0.000000000000000e+00  0.000000000000000e+00  0.000000000000000e+00  0.000000000000000e+00  0.000000000000000e+00  0.000000000000000e+00
42  0.000000000000000e+00  0.000000000000000e+00  0.000000000000000e+00  0.000000000000000e+00  0.000000000000000e+00  0.000000000000000e+00
43  0.000000000000000e+00  0.000000000000000e+00  0.000000000000000e+00  0.000000000000000e+00  0.000000000000000e+00  0.000000000000000e+00
44  0.000000000000000e+00  0.000000000000000e+00  0.000000000000000e+00  0.000000000000000e+00  0.000000000000000e+00  0.000000000000000e+00
45  0.000000000000000e+00  0.000000000000000e+00  0.000000000000000e+00  0.000000000000000e+00  0.000000000000000e+00  0.000000000000000e+00
46  0.000000000000000e+00  0.000000000000000e+00  0.000000000000000e+00  0.000000000000000e+00  0.000000000000000e+00  0.000000000000000e+00
47  0.000000000000000e+00  0.000000000000000e+00  0.000000000000000e+00  0.000000000000000e+00  0.000000000000000e+00  0.000000000000000e+00
48  0.000000000000000e+00  0.000000000000000e+00  0.000000000000000e+00  0.000000000000000e+00  0.000000000000000e+00  0.000000000000000e+00
49  0.000000000000000e+00  0.000000000000000e+00  0.000000000000000e+00  0.000000000000000e+00  0.000000000000000e+00  0.000000000000000e+00
50  0.000000000000000e+00  0.000000000000000e+00  0.000000000000000e+00  0.000000000000000e+00  0.000000000000000e+00  0.000000000000000e+00
51  0.000000000000000e+00  0.000000000000000e+00  0.000000000000000e+00  0.000000000000000e+00  0.000000000000000e+00  0.000000000000000e+00
52  0.000000000000000e+00  0.000000000000000e+00  0.000000000000000e+00  0.000000000000000e+00  0.000000000000000e+00  0.000000000000000e+00
53  0.000000000000000e+00  0.000000000000000e+00  0.000000000000000e+00  0.000000000000000e+00  0.000000000000000e+00  0.000000000000000e+00
54  0.000000000000000e+00  0.000000000000000e+00  0.000000000000000e+00  0.000000000000000e+00  0.000000000000000e+00  0.000000000000000e+00
55  0.000000000000000e+00  0.000000000000000e+00  0.000000000000000e+00  0.000000000000000e+00  0.000000000000000e+00  0.000000000000000e+00
56  0.000000000000000e+00  0.000000000000000e+00  0.000000000000000e+00  0.000000000000000e+00  0.000000000000000e+00  0.000000000000000e+00
57  0.000000000000000e+00  0.000000000000000e+00  0.000000000000000e+00  0.000000000000000e+00  0.000000000000000e+00  0.000000000000000e+00
58  0.000000000000000e+00  0.000000000000000e+00  0.000000000000000e+00  0.000000000000000e+00  0.000000000000000e+00  0.000000000000000e+00
59  0.000000000000000e+00  0.000000000000000e+00  0.000000000000000e+00  0.000000000000000e+00  0.000000000000000e+00  0.000000000000000e+00
60  0.000000000000000e+00  0.000000000000000e+00  0.000000000000000e+00  0.000000000000000e+00  0.000000000000000e+00  0.000000000000000e+00
61  0.000000000000000e+00  0.000000000000000e+00  0.000000000000000e+00  0.000000000000000e+00  0.000000000000000e+00  0.000000000000000e+00
62  0.000000000000000e+00  0.000000000000000e+00  0.000000000000000e+00  0.000000000000000e+00  0.000000000000000e+00  0.000000000000000e+00
63  0.000000000000000e+00  0.000000000000000e+00  0.000000000000000e+00  0.000000000000000e+00  0.000000000000000e+00  0.000000000000000e+00
64  0.000000000000000e+00  0.000000000000000e+00  0.000000000000000e+00  0.000000000000000e+00  0.000000000000000e+00  0.000000000000000e+00
65  0.000000000000000e+00  0.000000000000000e+00  0.000000000000000e+00  0.000000000000000e+00  0.000000000000000e+00  0.000000000000000e+00
66  0.000000000000000e+00  0.000000000000000e+00  0.000000000000000e+00  0.000000000000000e+00  0.000000000000000e+00  0.000000000000000e+00
67  0.000000000000000e+00  0.000000000000000e+00  0.000000000000000e+00  0.000000000000000e+00  0.000000000000000e+00  0.000000000000000e+00
68  0.000000000000000e+00  0.000000000000000e+00  0.000000000000000e+00  0.000000000000000e+00  0.000000000000000e+00  0.000000000000000e+00
69  0.000000000000000e+00  0.000000000000000e+00  0.000000000000000e+00  0.000000000000000e+00  0.000000000000000e+00  0.000000000000000e+00
70  0.000000000000000e+00  0.000000000000000e+00  0.000000000000000e+00  0.000000000000000e+00  0.000000000000000e+00  0.000000000000000e+00
71  0.000000000000000e+00  0.000000000000000e+00  0.000000000000000e+00  0.000000000000000e+00  0.000000000000000e+00  0.000000000000000e+00
72  0.000000000000000e+00  0.000000000000000e+00  0.000000000000000e+00  0.000000000000000e+00  0.000000000000000e+00  0.000000000000000e+00
73  0.000000000000000e+00  0.000000000000000e+00  0.000000000000000e+00  0.000000000000000e+00  0.000000000000000e+00  0.000000000000000e+00
74  0.000000000000000e+00  0.000000000000000e+00  0.000000000000000e+00  0.000000000000000e+00  0.000000000000000e+00  0.000000000000000e+00
75  0.000000000000000e+00  0.000000000000000e+00  0.000000000000000e+00  0.000000000000000e+00  0.000000000000000e+00  0.000000000000000e+00
76  0.000000000000000e+00  0.000000000000000e+00  0.000000000000000e+00  0.000000000000000e+00  0.000000000000000e+00  0.000000000000000e+00
77  0.000000000000000e+00  0.000000000000000e+00  0.000000000000000e+00  0.000000000000000e+00  0.000000000000000e+00  0.000000000000000e+00
78  0.000000000000000e+00  0.000000000000000e+00  0.000000000000000e+00  0.000000000000000e+00  0.000000000000000e+00  0.000000000000000e+00
79  0.000000000000000e+00  0.000000000000000e+00  0.000000000000000e+00  0.000000000000000e+00  0.000000000000000e+00  0.000000000000000e+00
80  0.000000000000000e+00  0.000000000000000e+00  0.000000000000000e+00  0.000000000000000e+00  0.000000000000000e+00  0.000000000000000e+00
81  0.000000000000000e+00  0.000000000000000e+00  0.000000000000000e+00  0.000000000000000e+00  0.000000000000000e+00  0.000000000000000e+00
82  0.000000000000000e+00  0.000000000000000e+00  0.000000000000000e+00  0.000000000000000e+00  0.000000000000000e+00  0.000000000000000e+00
83  0.000000000000000e+00  0.000000000000000e+00  0.000000000000000e+00  0.000000000000000e+00  0.000000000000000e+00  0.000000000000000e+00
84  0.000000000000000e+00  0.000000000000000e+00  0.000000000000000e+00  0.000000000000000e+00  0.000000000000000e+00  0.000000000000000e+00
85  0.000000000000000e+00  0.000000000000000e+00  0.000000000000000e+00  0.000000000000000e+00  0.000000000000000e+00  0.000000000000000e+00
86  0.000000000000000e+00  0.000000000000000e+00  0.000000000000000e+00  0.000000000000000e+00  0.000000000000000e+00  0.000000000000000e+00
87  0.000000000000000e+00  0.000000000000000e+00  0.000000000000000e+00  0.000000000000000e+00  0.000000000000000e+00  0.000000000000000e+00
88  0.000000000000000e+00  0.000000000000000e+00  0.000000000000000e+00  0.000000000000000e+00  0.000000000000000e+00  0.000000000000000e+00
89  0.000000000000000e+00  0.000000000000000e+00  0.000000000000000e+00  0.000000000000000e+00  0.000000000000000e+00  0.000000000000000e+00
90  0.000000000000000e+00  0.000000000000000e+00  0.000000000000000e+00  0.000000000000000e+00  0.000000000000000e+00  0.000000000000000e+00
91  0.000000000000000e+00  0.000000000000000e+00  0.000000000000000e+00  0.000000000000000e+00  0.000000000000000e+00  0.000000000000000e+00
92  0.000000000000000e+00  0.000000000000000e+00  0.000000000000000e+00  0.000000000000000e+00  0.000000000000000e+00  0.000000000000000e+00
93  0.000000000000000e+00  0.000000000000000e+00  0.000000000000000e+00  0.000000000000000e+00  0.000000000000000e+00  0.000000000000000e+00
94  0.000000000000000e+00  0.000000000000000e+00  0.000000000000000e+00  0.000000000000000e+00  0.000000000000000e+00  0.000000000000000e+00
95  0.000000000000000e+00  0.000000000000000e+00  0.000000000000000e+00  0.000000000000000e+00  0.000000000000000e+00  0.000000000000000e+00
96  0.000000000000000e+00  0.000000000000000e+00  0.000000000000000e+00  0.000000000000000e+00  0.000000000000000e+00  0.000000000000000e+00
97  0.000000000000000e+00  0.000000000000000e+00  0.000000000000000e+00  0.000000000000000e+00  0.000000000000000e+00  0.000000000000000e+00
98  0.000000000000000e+00  0.000000000000000e+00  0.000000000000000e+00  0.000000000000000e+00  0.000000000000000e+00  0.000000000000000e+00
99  0.000000000000000e+00  0.000000000000000e+00  0.000000000000000e+00  0.000000000000000e+00  0.000000000000000e+00  0.000000000000000e+00
100  0.000000000000000e+00  0.000000000000000e+00  0.000000000000000e+00  0.000000000000000e+00  0.000000000000000e+00  0.000000000000000e+00
101  0.000000000000000e+00  0.000000000000000e+00  0.000000000000000e+00  0.000000000000000e+00  0.000000000000000e+00  0.000000000000000e+00
102  0.000000000000000e+00  0.000000000000000e+00  0.000000000000000e+00  0.000000000000000e+00  0.000000000000000e+00  0.000000000000000e+00
103  0.000000000000000e+00  0.000000000000000e+00  0.000000000000000e+00  0.000000000000000e+00  0.000000000000000e+00  0.000000000000000e+00
104  0.000000000000000e+00  0.000000000000000e+00  0.000000000000000e+00  0.000000000000000e+00  0.000000000000000e+00  0.000000000000000e+00
105  0.000000000000000e+00  0.000000000000000e+00  0.000000000000000e+00  0.000000000000000e+00  0.000000000000000e+00  0.000000000000000e+00
106  0.000000000000000e+00  0.000000000000000e+00  0.000000000000000e+00  0.000000000000000e+00  0.000000000000000e+00  0.000000000000000e+00
107  0.000000000000000e+00  0.000000000000000e+00  0.000000000000000e+00  0.000000000000000e+00  0.000000000000000e+00  0.000000000000000e+00
108  0.000000000000000e+00  0.000000000000000e+00  0.000000000000000e+00  0.000000000000000e+00  0.000000000000000e+00  0.000000000000000e+00
109  0.000000000000000e+00  0.000000000000000e+00  0.000000000000000e+00  0.000000000000000e+00  0.000000000000000e+00  0.000000000000000e+00
110  0.000000000000000e+00  0.000000000000000e+00  0.000000000000000e+00  0.000000000000000e+00  0.000000000000000e+00  0.000000000000000e+00
111  0.000000000000000e+00  0.000000000000000e+00  0.000000000000000e+00  0.000000000000000e+00  0.000000000000000e+00  0.000000000000000e+00
112  0.000000000000000e+00  0.000000000000000e+00  0.000000000000000e+00  0.000000000000000e+00  0.000000000000000e+00  0.000000000000000e+00
113  0.000000000000000e+00  0.000000000000000e+00  0.000000000000000e+00  0.000000000000000e+00  0.000000000000000e+00  0.000000000000000e+00
114  0.000000000000000e+00  0.000000000000000e+00  0.000000000000000e+00  0.000000000000000e+00  0.000000000000000e+00  0.000000000000000e+00
115  0.000000000000000e+00  0.000000000000000e+00  0.000000000000000e+00  0.000000000000000e+00  0.000000000000000e+00  0.000000000000000e+00
116  0.000000000000000e+00  0.000000000000000e+00  0.000000000000000e+00  0.000000000000000e+00  0.000000000000000e+00  0.000000000000000e+00
117  0.000000000000000e+00  0.000000000000000e+00  0.000000000000000e+00  0.000000000000000e+00  0.000000000000000e+00  0.000000000000000e+00
118  0.000000000000000e+00  0.000000000000000e+00  0.000000000000000e+00  0.000000000000000e+00  0.000000000000000e+00  0.000000000000000e+00
119  0.000000000000000e+00  0.000000000000000e+00  0.000000000000000e+00  0.000000000000000e+00  0.000000000000000e+00  0.000000000000000e+00
120  0.000000000000000e+00  0.000000000000000e+00  0.000000000000000e+00  0.000000000000000e+00  0.000000000000000e+00  0.000000000000000e+00
121  0.000000000000000e+00  0.000000000000000e+00  0.000000000000000e+00  0.000000000000000e+00  0.000000000000000e+00  0.000000000000000e+00
122  0.000000000000000e+00  0.000000000000000e+00  0.000000000000000e+00  0.000000000000000e+00  0.000000000000000e+00  0.000000000000000e+00
123  0.000000000000000e+00  0.000000000000000e+00  0.000000000000000e+00  0.000000000000000e+00  0.000000000000000e+00  0.000000000000000e+00
124  0.000000000000000e+00  0.000000000000000e+00  0.000000000000000e+00  0.000000000000000e+00  0.000000000000000e+00  0.000000000000000e+00
125  0.000000000000000e+00  0.000000000000000e+00  0.000000000000000e+00  0.000000000000000e+00  0.000000000000000e+00  0.000000000000000e+00
126  0.000000000000000e+00  0.000000000000000e+00  0.000000000000000e+00  0.000000000000000e+00  0.000000000000000e+00  0.000000000000000e+00