# LAMMPS data file
194 atoms
194 ellipsoids
190 bonds

4 atom types
1 bond types

# System size
0.000000 34.000000 xlo xhi
0.000000 34.000000 ylo yhi
0.000000 34.000000 zlo zhi

Masses

1 3.1575
2 3.1575
3 3.1575
4 3.1575

# Atom-ID, type, position, molecule-ID, ellipsoid flag, density
Atoms

1 3 -8.827404975891113e+00  2.222720384597778e+00  7.004425525665283e+00 1 1 1
2 2 -8.327002525329590e+00  2.095601558685303e+00  7.152915477752686e+00 1 1 1
3 4 -7.901082992553711e+00  1.773113727569580e+00  7.210612297058105e+00 1 1 1
4 1 -7.581069946289062e+00  1.359250307083130e+00  7.088323593139648e+00 1 1 1
5 3 -7.357814311981201e+00  9.926412105560303e-01  6.765132904052734e+00 1 1 1
6 2 -7.185598850250244e+00  7.940044403076172e-01  6.296455860137939e+00 1 1 1
7 1 -6.999398231506348e+00  8.202575445175171e-01  5.793179035186768e+00 1 1 1
8 2 -6.739152908325195e+00  1.042788147926331e+00  5.379159450531006e+00 1 1 1
9 2 -6.373279094696045e+00  1.358512639999390e+00  5.144367694854736e+00 1 1 1
10 4 -5.910170078277588e+00  1.628869056701660e+00  5.110606193542480e+00 1 1 1
11 1 -5.395230293273926e+00  1.732628822326660e+00  5.223490715026855e+00 1 1 1
12 2 -4.893475532531738e+00  1.611743569374084e+00  5.372800350189209e+00 1 1 1
13 2 -4.464965820312500e+00  1.293585777282715e+00  5.434548854827881e+00 1 1 1
14 2 -4.141894340515137e+00  8.804346323013306e-01  5.317899703979492e+00 1 1 1
15 3 -3.916444778442383e+00  5.106800198554993e-01  4.999894618988037e+00 1 1 1
16 4 -3.743655920028687e+00  3.062166273593903e-01  4.534036636352539e+00 1 1 1
17 1 -3.558631420135498e+00  3.261552751064301e-01  4.029958724975586e+00 1 1 1
18 2 -3.301114559173584e+00  5.443649291992188e-01  3.611932039260864e+00 1 1 1
19 3 -2.938287496566772e+00  8.593187928199768e-01  3.371433496475220e+00 1 1 1
20 1 -2.477436304092407e+00  1.132807970046997e+00  3.332538366317749e+00 1 1 1
21 3 -1.963121175765991e+00  1.242373228073120e+00  3.442591190338135e+00 1 1 1
22 1 -1.460051059722900e+00  1.127761960029602e+00  3.592611074447632e+00 1 1 1
23 1 -1.028867721557617e+00  8.139822483062744e-01  3.658302307128906e+00 1 1 1
24 3 -7.027544975280762e-01  4.016270339488983e-01  3.547346353530884e+00 1 1 1
25 3 -4.750558733940125e-01  2.882641926407814e-02  3.234546184539795e+00 1 1 1
26 3 -3.016511499881744e-01 -1.814055591821671e-01  2.771447658538818e+00 1 1 1
27 2 -1.178800240159035e-01 -1.677660495042801e-01  2.266737699508667e+00 1 1 1
28 1  5.001310110092163e-01 -9.956186413764954e-01  1.770958781242371e+00 1 1 1
29 1  7.914161682128906e-01 -1.396364212036133e+00  1.563014984130859e+00 1 1 1
30 1  1.436849236488342e+00 -2.302342176437378e+00  1.146225333213806e+00 1 1 1
31 1  1.355526328086853e+00 -2.818142890930176e+00  1.019594788551331e+00 1 1 1
32 1  1.436903119087219e+00 -3.272869110107422e+00  7.452564835548401e-01 1 1 1
33 4  1.719412803649902e+00 -3.622434854507446e+00  4.508391022682190e-01 1 1 1
34 1  2.165470123291016e+00 -3.862564802169800e+00  2.717266678810120e-01 1 1 1
35 3  2.675028085708618e+00 -4.030725002288818e+00  2.992258667945862e-01 1 1 1
36 4  3.124135732650757e+00 -4.191552639007568e+00  5.464615821838379e-01 1 1 1
37 3  3.411730527877808e+00 -4.412582874298096e+00  9.428854584693909e-01 1 1 1
38 3  3.498089313507080e+00 -4.738428115844727e+00  1.361281156539917e+00 1 1 1
39 3  3.419936180114746e+00 -5.173980236053467e+00  1.666047692298889e+00 1 1 1
40 2  3.276652812957764e+00 -5.682248115539551e+00  1.764945507049561e+00 1 1 1
41 3  3.192147016525269e+00 -6.198822975158691e+00  1.643801927566528e+00 1 1 1
42 3  3.268023729324341e+00 -6.656028270721436e+00  1.371993660926819e+00 1 1 1
43 4  3.545130968093872e+00 -7.008800506591797e+00  1.076247096061707e+00 1 1 1
44 1  3.987732887268066e+00 -7.251685619354248e+00  8.922706842422485e-01 1 1 1
45 4  4.497194766998291e+00 -7.420972347259521e+00  9.135540723800659e-01 1 1 1
46 2  4.949546337127686e+00 -7.581056594848633e+00  1.155249714851379e+00 1 1 1
47 1  5.242546081542969e+00 -7.799674510955811e+00  1.549010157585144e+00 1 1 1
48 4  5.334372043609619e+00 -8.122324943542480e+00  1.968682646751404e+00 1 1 1
49 2  5.259747982025146e+00 -8.555153846740723e+00  2.278197050094604e+00 1 1 1
50 3  1.035262489318848e+01  7.896266937255859e+00  2.536503791809082e+00 2 1 1
51 2  1.022513484954834e+01  7.374311923980713e+00  2.540302276611328e+00 2 1 1
52 4  9.993756294250488e+00  6.928891181945801e+00  2.731959581375122e+00 2 1 1
53 1  9.627237319946289e+00  6.647503852844238e+00  3.006199598312378e+00 2 1 1
54 3  9.145794868469238e+00  6.555302619934082e+00  3.226163148880005e+00 2 1 1
55 2  8.613195419311523e+00  6.605605125427246e+00  3.275774002075195e+00 2 1 1
56 1  8.112668037414551e+00  6.697603225708008e+00  3.103593826293945e+00 2 1 1
57 3  7.715134143829346e+00  6.714666366577148e+00  2.742463588714600e+00 2 1 1
58 2  7.452718734741211e+00  6.568494319915771e+00  2.296963214874268e+00 2 1 1
59 1  7.305877208709717e+00  6.232995986938477e+00  1.903809785842896e+00 2 1 1
60 4  7.211290359497070e+00  5.753885746002197e+00  1.679825186729431e+00 2 1 1
61 1  7.085818290710449e+00  5.231436729431152e+00  1.677509427070618e+00 2 1 1
62 3  6.857964992523193e+00  4.782483577728271e+00  1.865101814270020e+00 2 1 1
63 4  6.495247364044189e+00  4.495819568634033e+00  2.138860464096069e+00 2 1 1
64 3  6.016263961791992e+00  4.398643970489502e+00  2.362144947052002e+00 2 1 1
65 3  5.484017372131348e+00  4.446165084838867e+00  2.417561054229736e+00 2 1 1
66 4  4.981411933898926e+00  4.538660526275635e+00  2.251491546630859e+00 2 1 1
67 2  4.580472469329834e+00  4.559184074401855e+00  1.894432663917542e+00 2 1 1
68 2  4.314240932464600e+00  4.418282032012939e+00  1.449539065361023e+00 2 1 1
69 3  4.164882183074951e+00  4.087726116180420e+00  1.053116679191589e+00 2 1 1
70 4  4.069959163665771e+00  3.611449241638184e+00  8.232691287994385e-01 2 1 1
71 2  3.946436166763306e+00  3.088592529296875e+00  8.148390054702759e-01 2 1 1
72 1  3.722116231918335e+00  2.636166334152222e+00  9.983017444610596e-01 2 1 1
73 1  3.363104343414307e+00  2.344284296035767e+00  1.271451711654663e+00 2 1 1
74 2  2.886701345443726e+00  2.242132186889648e+00  1.497945666313171e+00 2 1 1
75 4  2.354793548583984e+00  2.286814689636230e+00  1.559100985527039e+00 2 1 1
76 1  1.293004989624023e+00  1.645436763763428e+00  1.856851220130920e+00 2 1 1
77 1  8.375083208084106e-01  1.419641852378845e+00  2.030704736709595e+00 2 1 1
78 2 -2.470395267009735e-01  9.971400499343872e-01  2.552244186401367e+00 2 1 1
79 2 -7.610069513320923e-01  8.846842646598816e-01  2.443515539169312e+00 2 1 1
80 2 -1.220736026763916e+00  6.097097992897034e-01  2.485013961791992e+00 2 1 1
81 4 -1.582053422927856e+00  2.951581180095673e-01  2.728411197662354e+00 2 1 1
82 4 -1.838296294212341e+00  7.918234914541245e-02  3.148402214050293e+00 2 1 1
83 2 -2.022651672363281e+00  6.239165365695953e-02  3.652714967727661e+00 2 1 1
84 4 -2.195718526840210e+00  2.697331607341766e-01  4.117195129394531e+00 2 1 1
85 2 -2.422291517257690e+00  6.410251855850220e-01  4.432656288146973e+00 2 1 1
86 3 -2.746887207031250e+00  1.053791642189026e+00  4.546455383300781e+00 2 1 1
87 4 -3.176741838455200e+00  1.369754433631897e+00  4.482794761657715e+00 2 1 1
88 1 -3.679143905639648e+00  1.487508177757263e+00  4.333074569702148e+00 2 1 1
89 2 -4.193857192993164e+00  1.380879282951355e+00  4.221506595611572e+00 2 1 1
90 3 -4.655783176422119e+00  1.108908414840698e+00  4.257868289947510e+00 2 1 1
91 3 -5.020138740539551e+00  7.935635447502136e-01  4.495517253875732e+00 2 1 1
92 3 -5.278988361358643e+00  5.731849670410156e-01  4.911567687988281e+00 2 1 1
93 4 -5.464658737182617e+00  5.500931143760681e-01  5.415241241455078e+00 2 1 1
94 1 -5.637102603912354e+00  7.516560554504395e-01  5.882488250732422e+00 2 1 1
95 3 -5.861419200897217e+00  1.119837045669556e+00  6.203085422515869e+00 2 1 1
96 3 -6.183033466339111e+00  1.533379793167114e+00  6.322578907012939e+00 2 1 1
97 3 -3.407370567321777e+00  1.153387069702148e+00 -1.102247142791748e+01 3 1 1
98 2 -2.944993734359741e+00  9.611071944236755e-01 -1.082768440246582e+01 3 1 1
99 4 -2.454344987869263e+00  9.939391613006592e-01 -1.061124324798584e+01 3 1 1
100 1 -2.061758756637573e+00  1.219041466712952e+00 -1.032151508331299e+01 3 1 1
101 3 -1.856583952903748e+00  1.530472040176392e+00 -9.934767723083496e+00 3 1 1
102 2 -1.856663823127747e+00  1.789485931396484e+00 -9.464017868041992e+00 3 1 1
103 1 -2.002142190933228e+00  1.877244472503662e+00 -8.954283714294434e+00 3 1 1
104 3 -2.177759408950806e+00  1.740019202232361e+00 -8.465357780456543e+00 3 1 1
105 2 -2.256741762161255e+00  1.409550666809082e+00 -8.049190521240234e+00 3 1 1
106 2 -2.149356126785278e+00  9.909139275550842e-01 -7.729994297027588e+00 3 1 1
107 1 -1.836166620254517e+00  6.228148341178894e-01 -7.495199203491211e+00 3 1 1
108 4 -1.376413345336914e+00  4.246225059032440e-01 -7.300167560577393e+00 3 1 1
109 1 -8.847680687904358e-01  4.512468874454498e-01 -7.085086822509766e+00 3 1 1
110 1 -4.880213141441345e-01  6.721715331077576e-01 -6.797951698303223e+00 3 1 1
111 2 -2.770341336727142e-01  9.830069541931152e-01 -6.413842678070068e+00 3 1 1
112 2 -2.719065845012665e-01  1.245288491249084e+00 -5.944987297058105e+00 3 1 1
113 4 -4.146872162818909e-01  1.338944673538208e+00 -5.435544967651367e+00 3 1 1
114 3 -5.912426710128784e-01  1.207949280738831e+00 -4.945245265960693e+00 3 1 1
115 3 -6.743907332420349e-01  8.817041516304016e-01 -4.526544094085693e+00 3 1 1
116 3 -5.728121995925903e-01  4.636885523796082e-01 -4.204647064208984e+00 3 1 1
117 1 -2.649576663970947e-01  9.234309196472168e-02 -3.968004941940308e+00 3 1 1
118 3  1.921022534370422e-01 -1.117105185985565e-01 -3.772623538970947e+00 3 1 1
119 2  6.846235990524292e-01 -9.131996333599091e-02 -3.558908224105835e+00 3 1 1
120 3  1.085532784461975e+00  1.253542751073837e-01 -3.274245023727417e+00 3 1 1
121 4  1.302385449409485e+00  4.355157613754272e-01 -2.892888545989990e+00 3 1 1
122 1  1.312784910202026e+00  7.009814381599426e-01 -2.425882101058960e+00 3 1 1
123 2  1.172755479812622e+00  8.004710674285889e-01 -1.916770577430725e+00 3 1 1
124 1  1.675100445747375e+00  1.257362604141235e+00 -9.434144496917725e-01 3 1 1
125 1  1.900878667831421e+00  1.483481526374817e+00 -5.114676356315613e-01 3 1 1
126 3  2.376693725585938e+00  2.017240047454834e+00  3.835919797420502e-01 3 1 1
127 1  2.499284744262695e+00  2.540235280990601e+00  3.951742947101593e-01 3 1 1
128 3  2.594413518905640e+00  3.015071630477905e+00  6.278019547462463e-01 3 1 1
129 4  2.745100975036621e+00  3.343101501464844e+00  1.025768160820007e+00 3 1 1
130 4  3.013117551803589e+00  3.481411457061768e+00  1.470447063446045e+00 3 1 1
131 3  3.415832042694092e+00  3.459155559539795e+00  1.825320005416870e+00 3 1 1
132 1  3.919406652450562e+00  3.366498231887817e+00  1.988361954689026e+00 3 1 1
133 2  4.451511859893799e+00  3.320377588272095e+00  1.930044889450073e+00 3 1 1
134 3  4.929177284240723e+00  3.420007944107056e+00  1.705155491828918e+00 3 1 1
135 3  5.290034294128418e+00  3.709306240081787e+00  1.431672215461731e+00 3 1 1
136 1  5.516130447387695e+00  4.160002231597900e+00  1.246144652366638e+00 3 1 1
137 2  5.640623569488525e+00  4.682659149169922e+00  1.251548409461975e+00 3 1 1
138 2  5.735341072082520e+00  5.160408020019531e+00  1.478492736816406e+00 3 1 1
139 1  5.883453845977783e+00  5.493434906005859e+00  1.873249530792236e+00 3 1 1
140 2  6.147771835327148e+00  5.636943817138672e+00  2.318478822708130e+00 3 1 1
141 4  6.547012805938721e+00  5.618157386779785e+00  2.677544116973877e+00 3 1 1
142 1  7.048577308654785e+00  5.525922298431396e+00  2.846697092056274e+00 3 1 1
143 4  7.581081867218018e+00  5.476963043212891e+00  2.794186115264893e+00 3 1 1
144 3  8.061278343200684e+00  5.571644783020020e+00  2.572563171386719e+00 3 1 1
145 2  8.425895690917969e+00  5.855652809143066e+00  2.298532485961914e+00 3 1 1
146 3  5.947116851806641e+00 -1.126982784271240e+01  2.579875469207764e+00 4 1 1
147 2  6.036494255065918e+00 -1.075214290618896e+01  2.692703962326050e+00 4 1 1
148 4  6.179604053497314e+00 -1.024573993682861e+01  2.584202766418457e+00 4 1 1
149 1  6.252475738525391e+00 -9.814283370971680e+00  2.272467613220215e+00 4 1 1
150 3  6.157830715179443e+00 -9.493258476257324e+00  1.852056980133057e+00 4 1 1
151 2  5.862195968627930e+00 -9.275833129882812e+00  1.459666728973389e+00 4 1 1
152 1  5.408270359039307e+00 -9.116109848022461e+00  1.220746517181396e+00 4 1 1
153 3  4.898912429809570e+00 -8.946159362792969e+00  1.202670454978943e+00 4 1 1
154 1  4.457993507385254e+00 -8.701933860778809e+00  1.388919234275818e+00 4 1 1
155 4  4.183649063110352e+00 -8.347571372985840e+00  1.685338497161865e+00 4 1 1
156 3  4.110468387603760e+00 -7.889169216156006e+00  1.955845594406128e+00 4 1 1
157 1  4.196591377258301e+00 -7.372221946716309e+00  2.074280738830566e+00 4 1 1
158 4  4.339832782745361e+00 -6.864548206329346e+00  1.972181439399719e+00 4 1 1
159 1  4.416256427764893e+00 -6.430380821228027e+00  1.665013670921326e+00 4 1 1
160 2  4.327131748199463e+00 -6.106125831604004e+00  1.245947957038879e+00 4 1 1
161 2  4.036905765533447e+00 -5.886297225952148e+00  8.508314490318298e-01 4 1 1
162 3  3.586115837097168e+00 -5.725879192352295e+00  6.063604354858398e-01 4 1 1
163 2  3.076537847518921e+00 -5.557130813598633e+00  5.819932818412781e-01 4 1 1
164 2  2.632275819778442e+00 -5.315642356872559e+00  7.635127902030945e-01 4 1 1
165 2  2.352470159530640e+00 -4.964468479156494e+00  1.058594346046448e+00 4 1 1
166 1  2.273835659027100e+00 -4.508480072021484e+00  1.331698536872864e+00 4 1 1
167 2  2.356718540191650e+00 -3.992305994033813e+00  1.455613613128662e+00 4 1 1
168 4  2.500097990036011e+00 -3.483407974243164e+00  1.359919309616089e+00 4 1 1
169 1  2.579882144927979e+00 -3.046577692031860e+00  1.057420611381531e+00 4 1 1
170 4  2.496207237243652e+00 -2.719095468521118e+00  6.398112773895264e-01 4 1 1
171 4  2.211364507675171e+00 -2.496817111968994e+00  2.421525865793228e-01 4 1 1
172 4  1.763881564140320e+00 -2.335589647293091e+00 -7.853532209992409e-03 4 1 1
173 1  1.436255812644958e+00 -1.471252322196960e+00 -7.546654939651489e-01 4 1 1
174 1  1.290701746940613e+00 -1.109762310981750e+00 -1.124563813209534e+00 4 1 1
175 3  9.764219522476196e-01 -3.797937035560608e-01 -2.008785486221313e+00 4 1 1
176 4  5.207406878471375e-01 -1.728097945451736e-01 -2.204365730285645e+00 4 1 1
177 1  2.155499160289764e-01  2.001271992921829e-01 -2.441992044448853e+00 4 1 1
178 2  1.168133318424225e-01  6.177636981010437e-01 -2.765267133712769e+00 4 1 1
179 3  2.021345347166061e-01  9.418703913688660e-01 -3.185184478759766e+00 4 1 1
180 2  3.790649771690369e-01  1.069740533828735e+00 -3.676159620285034e+00 4 1 1
181 4  5.204736590385437e-01  9.731750488281250e-01 -4.185412406921387e+00 4 1 1
182 2  5.127370953559875e-01  7.092418670654297e-01 -4.653336048126221e+00 4 1 1
183 2  2.987858057022095e-01  3.987406790256500e-01 -5.036062717437744e+00 4 1 1
184 2 -1.000747159123421e-01  1.799511909484863e-01 -5.322058677673340e+00 4 1 1
185 1 -5.922195911407471e-01  1.564287245273590e-01 -5.536393165588379e+00 4 1 1
186 3 -1.050591588020325e+00  3.575792312622070e-01 -5.731641292572021e+00 4 1 1
187 3 -1.361114621162415e+00  7.272927761077881e-01 -5.967298030853271e+00 4 1 1
188 4 -1.465654492378235e+00  1.145638823509216e+00 -6.287876605987549e+00 4 1 1
189 4 -1.384495139122009e+00  1.474023818969727e+00 -6.705314636230469e+00 4 1 1
190 1 -1.208380579948425e+00  1.608116984367371e+00 -7.194868564605713e+00 4 1 1
191 4 -1.064285278320312e+00  1.517384290695190e+00 -7.704493522644043e+00 4 1 1
192 3 -1.066744923591614e+00  1.256756305694580e+00 -8.174268722534180e+00 4 1 1
193 3 -1.274891257286072e+00  9.455903768539429e-01 -8.559688568115234e+00 4 1 1
194 2 -1.669588923454285e+00  7.225621938705444e-01 -8.848163604736328e+00 4 1 1

# Atom-ID, translational, rotational velocity
Velocities

1  0.000000000000000e+00  0.000000000000000e+00  0.000000000000000e+00  0.000000000000000e+00  0.000000000000000e+00  0.000000000000000e+00
2  0.000000000000000e+00  0.000000000000000e+00  0.000000000000000e+00  0.000000000000000e+00  0.000000000000000e+00  0.000000000000000e+00
3  0.000000000000000e+00  0.000000000000000e+00  0.000000000000000e+00  0.000000000000000e+00  0.000000000000000e+00  0.000000000000000e+00
4  0.000000000000000e+00  0.000000000000000e+00  0.000000000000000e+00  0.000000000000000e+00  0.000000000000000e+00  0.000000000000000e+00
5  0.000000000000000e+00  0.000000000000000e+00  0.000000000000000e+00  0.000000000000000e+00  0.000000000000000e+00  0.000000000000000e+00
6  0.000000000000000e+00  0.000000000000000e+00  0.000000000000000e+00  0.000000000000000e+00  0.000000000000000e+00  0.000000000000000e+00
7  0.000000000000000e+00  0.000000000000000e+00  0.000000000000000e+00  0.000000000000000e+00  0.000000000000000e+00  0.000000000000000e+00
8  0.000000000000000e+00  0.000000000000000e+00  0.000000000000000e+00  0.000000000000000e+00  0.000000000000000e+00  0.000000000000000e+00
9  0.000000000000000e+00  0.000000000000000e+00  0.000000000000000e+00  0.000000000000000e+00  0.000000000000000e+00  0.000000000000000e+00
10  0.000000000000000e+00  0.000000000000000e+00  0.000000000000000e+00  0.000000000000000e+00  0.000000000000000e+00  0.000000000000000e+00
11  0.000000000000000e+00  0.000000000000000e+00  0.000000000000000e+00  0.000000000000000e+00  0.000000000000000e+00  0.000000000000000e+00
12  0.000000000000000e+00  0.000000000000000e+00  0.000000000000000e+00  0.000000000000000e+00  0.000000000000000e+00  0.000000000000000e+00
13  0.000000000000000e+00  0.000000000000000e+00  0.000000000000000e+00  0.000000000000000e+00  0.000000000000000e+00  0.000000000000000e+00
14  0.000000000000000e+00  0.000000000000000e+00  0.000000000000000e+00  0.000000000000000e+00  0.000000000000000e+00  0.000000000000000e+00
15  0.000000000000000e+00  0.000000000000000e+00  0.000000000000000e+00  0.000000000000000e+00  0.000000000000000e+00  0.000000000000000e+00
16  0.000000000000000e+00  0.000000000000000e+00  0.000000000000000e+00  0.000000000000000e+00  0.000000000000000e+00  0.000000000000000e+00
17  0.000000000000000e+00  0.000000000000000e+00  0.000000000000000e+00  0.000000000000000e+00  0.000000000000000e+00  0.000000000000000e+00
18  0.000000000000000e+00  0.000000000000000e+00  0.000000000000000e+00  0.000000000000000e+00  0.000000000000000e+00  0.000000000000000e+00
19  0.000000000000000e+00  0.000000000000000e+00  0.000000000000000e+00  0.000000000000000e+00  0.000000000000000e+00  0.000000000000000e+00
20  0.000000000000000e+00  0.000000000000000e+00  0.000000000000000e+00  0.000000000000000e+00  0.000000000000000e+00  0.000000000000000e+00
21  0.000000000000000e+00  0.000000000000000e+00  0.000000000000000e+00  0.000000000000000e+00  0.000000000000000e+00  0.000000000000000e+00
22  0.000000000000000e+00  0.000000000000000e+00  0.000000000000000e+00  0.000000000000000e+00  0.000000000000000e+00  0.000000000000000e+00
23  0.000000000000000e+00  0.000000000000000e+00  0.000000000000000e+00  0.000000000000000e+00  0.000000000000000e+00  0.000000000000000e+00
24  0.000000000000000e+00  0.000000000000000e+00  0.000000000000000e+00  0.000000000000000e+00  0.000000000000000e+00  0.000000000000000e+00
25  0.000000000000000e+00  0.000000000000000e+00  0.000000000000000e+00  0.000000000000000e+00  0.000000000000000e+00  0.000000000000000e+00
26  0.000000000000000e+00  0.000000000000000e+00  0.000000000000000e+00  0.000000000000000e+00  0.000000000000000e+00  0.000000000000000e+00
27  0.000000000000000e+00  0.000000000000000e+00  0.000000000000000e+00  0.000000000000000e+00  0.000000000000000e+00  0.000000000000000e+00
28  0.000000000000000e+00  0.000000000000000e+00  0.000000000000000e+00  0.000000000000000e+00  0.000000000000000e+00  0.000000000000000e+00
29  0.000000000000000e+00  0.000000000000000e+00  0.000000000000000e+00  0.000000000000000e+00  0.000000000000000e+00  0.000000000000000e+00
30  0.000000000000000e+00  0.000000000000000e+00  0.000000000000000e+00  0.000000000000000e+00  0.000000000000000e+00  0.000000000000000e+00
31  0.000000000000000e+00  0.000000000000000e+00  0.000000000000000e+00  0.000000000000000e+00  0.000000000000000e+00  0.000000000000000e+00
32  0.000000000000000e+00  0.000000000000000e+00  0.000000000000000e+00  0.000000000000000e+00  0.000000000000000e+00  0.000000000000000e+00
33  0.000000000000000e+00  0.000000000000000e+00  0.000000000000000e+00  0.000000000000000e+00  0.000000000000000e+00  0.000000000000000e+00
34  0.000000000000000e+00  0.000000000000000e+00  0.000000000000000e+00  0.000000000000000e+00  0.000000000000000e+00  0.000000000000000e+00
35  0.000000000000000e+00  0.000000000000000e+00  0.000000000000000e+00  0.000000000000000e+00  0.000000000000000e+00  0.000000000000000e+00
36  0.000000000000000e+00  0.000000000000000e+00  0.000000000000000e+00  0.000000000000000e+00  0.000000000000000e+00  0.000000000000000e+00
37  0.000000000000000e+00  0.000000000000000e+00  0.000000000000000e+00  0.000000000000000e+00  0.000000000000000e+00  0.000000000000000e+00
38  0.000000000000000e+00  0.000000000000000e+00  0.000000000000000e+00  0.000000000000000e+00  0.000000000000000e+00  0.000000000000000e+00
39  0.000000000000000e+00  0.000000000000000e+00  0.000000000000000e+00  0.000000000000000e+00  0.000000000000000e+00  0.000000000000000e+00
40  0.000000000000000e+00  0.000000000000000e+00  0.000000000000000e+00  0.000000000000000e+00  0.000000000000000e+00  0.000000000000000e+00
41  0.000000000000000e+00  0.000000000000000e+00  0.000000000000000e+00  0.000000000000000e+00  0.000000000000000e+00  0.000000000000000e+00
42  0.000000000000000e+00  0.000000000000000e+00  0.000000000000000e+00  0.000000000000000e+00  0.000000000000000e+00  0.000000000000000e+00
43  0.000000000000000e+00  0.000000000000000e+00  0.000000000000000e+00  0.000000000000000e+00  0.000000000000000e+00  0.000000000000000e+00
44  0.000000000000000e+00  0.000000000000000e+00  0.000000000000000e+00  0.000000000000000e+00  0.000000000000000e+00  0.000000000000000e+00
45  0.000000000000000e+00  0.000000000000000e+00  0.000000000000000e+00  0.000000000000000e+00  0.000000000000000e+00  0.000000000000000e+00
46  0.000000000000000e+00  0.000000000000000e+00  0.000000000000000e+00  0.000000000000000e+00  0.000000000000000e+00  0.000000000000000e+00
47  0.000000000000000e+00  0.000000000000000e+00  0.000000000000000e+00  0.000000000000000e+00  0.000000000000000e+00  0.000000000000000e+00
48  0.000000000000000e+00  0.000000000000000e+00  0.000000000000000e+00  0.000000000000000e+00  0.000000000000000e+00  0.000000000000000e+00
49  0.000000000000000e+00  0.000000000000000e+00  0.000000000000000e+00  0.000000000000000e+00  0.000000000000000e+00  0.000000000000000e+00
50  0.000000000000000e+00  0.000000000000000e+00  0.000000000000000e+00  0.000000000000000e+00  0.000000000000000e+00  0.000000000000000e+00
51  0.000000000000000e+00  0.000000000000000e+00  0.000000000000000e+00  0.000000000000000e+00  0.000000000000000e+00  0.000000000000000e+00
52  0.000000000000000e+00  0.000000000000000e+00  0.000000000000000e+00  0.000000000000000e+00  0.000000000000000e+00  0.000000000000000e+00
53  0.000000000000000e+00  0.000000000000000e+00  0.000000000000000e+00  0.000000000000000e+00  0.000000000000000e+00  0.000000000000000e+00
54  0.000000000000000e+00  0.000000000000000e+00  0.000000000000000e+00  0.000000000000000e+00  0.000000000000000e+00  0.000000000000000e+00
55  0.000000000000000e+00  0.000000000000000e+00  0.000000000000000e+00  0.000000000000000e+00  0.000000000000000e+00  0.000000000000000e+00
56  0.000000000000000e+00  0.000000000000000e+00  0.000000000000000e+00  0.000000000000000e+00  0.000000000000000e+00  0.000000000000000e+00
57  0.000000000000000e+00  0.000000000000000e+00  0.000000000000000e+00  0.000000000000000e+00  0.000000000000000e+00  0.000000000000000e+00
58  0.000000000000000e+00  0.000000000000000e+00  0.000000000000000e+00  0.000000000000000e+00  0.000000000000000e+00  0.000000000000000e+00
59  0.000000000000000e+00  0.000000000000000e+00  0.000000000000000e+00  0.000000000000000e+00  0.000000000000000e+00  0.000000000000000e+00
60  0.000000000000000e+00  0.000000000000000e+00  0.000000000000000e+00  0.000000000000000e+00  0.000000000000000e+00  0.000000000000000e+00
61  0.000000000000000e+00  0.000000000000000e+00  0.000000000000000e+00  0.000000000000000e+00  0.000000000000000e+00  0.000000000000000e+00
62  0.000000000000000e+00  0.000000000000000e+00  0.000000000000000e+00  0.000000000000000e+00  0.000000000000000e+00  0.000000000000000e+00
63  0.000000000000000e+00  0.000000000000000e+00  0.000000000000000e+00  0.000000000000000e+00  0.000000000000000e+00  0.000000000000000e+00
64  0.000000000000000e+00  0.000000000000000e+00  0.000000000000000e+00  0.000000000000000e+00  0.000000000000000e+00  0.000000000000000e+00
65  0.000000000000000e+00  0.000000000000000e+00  0.000000000000000e+00  0.000000000000000e+00  0.000000000000000e+00  0.000000000000000e+00
66  0.000000000000000e+00  0.000000000000000e+00  0.000000000000000e+00  0.000000000000000e+00  0.000000000000000e+00  0.000000000000000e+00
67  0.000000000000000e+00  0.000000000000000e+00  0.000000000000000e+00  0.000000000000000e+00  0.000000000000000e+00  0.000000000000000e+00
68  0.000000000000000e+00  0.000000000000000e+00  0.000000000000000e+00  0.000000000000000e+00  0.000000000000000e+00  0.000000000000000e+00
69  0.000000000000000e+00  0.000000000000000e+00  0.000000000000000e+00  0.000000000000000e+00  0.000000000000000e+00  0.000000000000000e+00
70  0.000000000000000e+00  0.000000000000000e+00  0.000000000000000e+00  0.000000000000000e+00  0.000000000000000e+00  0.000000000000000e+00
71  0.000000000000000e+00  0.000000000000000e+00  0.000000000000000e+00  0.000000000000000e+00  0.000000000000000e+00  0.000000000000000e+00
72  0.000000000000000e+00  0.000000000000000e+00  0.000000000000000e+00  0.000000000000000e+00  0.000000000000000e+00  0.000000000000000e+00
73  0.000000000000000e+00  0.000000000000000e+00  0.000000000000000e+00  0.000000000000000e+00  0.000000000000000e+00  0.000000000000000e+00
74  0.000000000000000e+00  0.000000000000000e+00  0.000000000000000e+00  0.000000000000000e+00  0.000000000000000e+00  0.000000000000000e+00
75  0.000000000000000e+00  0.000000000000000e+00  0.000000000000000e+00  0.000000000000000e+00  0.000000000000000e+00  0.000000000000000e+00
76  0.000000000000000e+00  0.000000000000000e+00  0.000000000000000e+00  0.000000000000000e+00  0.000000000000000e+00  0.000000000000000e+00
77  0.000000000000000e+00  0.000000000000000e+00  0.000000000000000e+00  0.000000000000000e+00  0.000000000000000e+00  0.000000000000000e+00
78  0.000000000000000e+00  0.000000000000000e+00  0.000000000000000e+00  0.000000000000000e+00  0.000000000000000e+00  0.000000000000000e+00
79  0.000000000000000e+00  0.000000000000000e+00  0.000000000000000e+00  0.000000000000000e+00  0.000000000000000e+00  0.000000000000000e+00
80  0.000000000000000e+00  0.000000000000000e+00  0.000000000000000e+00  0.000000000000000e+00  0.000000000000000e+00  0.000000000000000e+00
81  0.000000000000000e+00  0.000000000000000e+00  0.000000000000000e+00  0.000000000000000e+00  0.000000000000000e+00  0.000000000000000e+00
82  0.000000000000000e+00  0.000000000000000e+00  0.000000000000000e+00  0.000000000000000e+00  0.000000000000000e+00  0.000000000000000e+00
83  0.000000000000000e+00  0.000000000000000e+00  0.000000000000000e+00  0.000000000000000e+00  0.000000000000000e+00  0.000000000000000e+00
84  0.000000000000000e+00  0.000000000000000e+00  0.000000000000000e+00  0.000000000000000e+00  0.000000000000000e+00  0.000000000000000e+00
85  0.000000000000000e+00  0.000000000000000e+00  0.000000000000000e+00  0.000000000000000e+00  0.000000000000000e+00  0.000000000000000e+00
86  0.000000000000000e+00  0.000000000000000e+00  0.000000000000000e+00  0.000000000000000e+00  0.000000000000000e+00  0.000000000000000e+00
87  0.000000000000000e+00  0.000000000000000e+00  0.000000000000000e+00  0.000000000000000e+00  0.000000000000000e+00  0.000000000000000e+00
88  0.000000000000000e+00  0.000000000000000e+00  0.000000000000000e+00  0.000000000000000e+00  0.000000000000000e+00  0.000000000000000e+00
89  0.000000000000000e+00  0.000000000000000e+00  0.000000000000000e+00  0.000000000000000e+00  0.000000000000000e+00  0.000000000000000e+00
90  0.000000000000000e+00  0.000000000000000e+00  0.000000000000000e+00  0.000000000000000e+00  0.000000000000000e+00  0.000000000000000e+00
91  0.000000000000000e+00  0.000000000000000e+00  0.000000000000000e+00  0.000000000000000e+00  0.000000000000000e+00  0.000000000000000e+00
92  0.000000000000000e+00  0.000000000000000e+00  0.000000000000000e+00  0.000000000000000e+00  0.000000000000000e+00  0.000000000000000e+00
93  0.000000000000000e+00  0.000000000000000e+00  0.000000000000000e+00  0.000000000000000e+00  0.000000000000000e+00  0.000000000000000e+00
94  0.000000000000000e+00  0.000000000000000e+00  0.000000000000000e+00  0.000000000000000e+00  0.000000000000000e+00  0.000000000000000e+00
95  0.000000000000000e+00  0.000000000000000e+00  0.000000000000000e+00  0.000000000000000e+00  0.000000000000000e+00  0.000000000000000e+00
96  0.000000000000000e+00  0.000000000000000e+00  0.000000000000000e+00  0.000000000000000e+00  0.000000000000000e+00  0.000000000000000e+00
97  0.000000000000000e+00  0.000000000000000e+00  0.000000000000000e+00  0.000000000000000e+00  0.000000000000000e+00  0.000000000000000e+00
98  0.000000000000000e+00  0.000000000000000e+00  0.000000000000000e+00  0.000000000000000e+00  0.000000000000000e+00  0.000000000000000e+00
99  0.000000000000000e+00  0.000000000000000e+00  0.000000000000000e+00  0.000000000000000e+00  0.000000000000000e+00  0.000000000000000e+00