# LAMMPS data file
290 atoms
290 ellipsoids
284 bonds

4 atom types
1 bond types

# System size
0.000000 48.000000 xlo xhi
0.000000 48.000000 ylo yhi
0.000000 48.000000 zlo zhi

Masses

1 3.1575
2 3.1575
3 3.1575
4 3.1575

# Atom-ID, type, position, molecule-ID, ellipsoid flag, density
Atoms

1 3  4.750059604644775e+00 -1.123948574066162e+01  7.460498809814453e+00 1 1 1
2 2  4.982690811157227e+00 -1.075652313232422e+01  7.497410297393799e+00 1 1 1
3 4  5.342378616333008e+00 -1.037646484375000e+01  7.375517368316650e+00 1 1 1
4 1  5.693992137908936e+00 -1.011876487731934e+01  7.061567783355713e+00 1 1 1
5 3  5.905597209930420e+00 -9.956548690795898e+00  6.595046997070312e+00 1 1 1
6 2  5.898359298706055e+00 -9.826469421386719e+00  6.073822021484375e+00 1 1 1
7 1  5.676490783691406e+00 -9.653212547302246e+00  5.616135120391846e+00 1 1 1
8 3  5.325872898101807e+00 -9.377676010131836e+00  5.316400051116943e+00 1 1 1
9 1  4.981308460235596e+00 -8.979724884033203e+00  5.208901882171631e+00 1 1 1
10 4  4.775247097015381e+00 -8.485667228698730e+00  5.254772663116455e+00 1 1 1
11 3  4.787480354309082e+00 -7.958355903625488e+00  5.357037544250488e+00 1 1 1
12 1  5.015012264251709e+00 -7.473235607147217e+00  5.397293090820312e+00 1 1 1
13 4  5.372859477996826e+00 -7.089830398559570e+00  5.280618667602539e+00 1 1 1
14 1  5.726727008819580e+00 -6.828873634338379e+00  4.971790790557861e+00 1 1 1
15 2  5.943618774414062e+00 -6.664719104766846e+00  4.508463859558105e+00 1 1 1
16 2  5.942752361297607e+00 -6.534829139709473e+00  3.987074851989746e+00 1 1 1
17 3  5.726042270660400e+00 -6.363698005676270e+00  3.526177883148193e+00 1 1 1
18 2  5.377356052398682e+00 -6.091463565826416e+00  3.221287965774536e+00 1 1 1
19 2  5.030648708343506e+00 -5.696758270263672e+00  3.108490943908691e+00 1 1 1
20 2  4.819302558898926e+00 -5.204626083374023e+00  3.151291370391846e+00 1 1 1
21 1  4.825088500976562e+00 -4.677195549011230e+00  3.253647327423096e+00 1 1 1
22 2  5.047442436218262e+00 -4.190016746520996e+00  3.297045946121216e+00 1 1 1
23 4  5.403337955474854e+00 -3.803287982940674e+00  3.185596466064453e+00 1 1 1
24 1  5.759241580963135e+00 -3.539110660552979e+00  2.881869316101074e+00 1 1 1
25 4  5.981398105621338e+00 -3.372944593429565e+00  2.421750545501709e+00 1 1 1
26 4  5.987018585205078e+00 -3.243106365203857e+00  1.900398373603821e+00 1 1 1
27 4  5.775523662567139e+00 -3.074048519134521e+00  1.436353802680969e+00 1 1 1
28 1  6.449998378753662e+00 -2.827710628509521e+00  1.983936429023743e-01 1 1 1
29 1  6.711965560913086e+00 -2.758443832397461e+00 -2.655666172504425e-01 1 1 1
30 3  7.406096458435059e+00 -2.650346517562866e+00 -1.446782112121582e+00 1 1 1
31 2  7.574493408203125e+00 -2.982804775238037e+00 -1.833931803703308e+00 1 1 1
32 3  7.699698925018311e+00 -3.123791456222534e+00 -2.336961030960083e+00 1 1 1
33 4  7.858282089233398e+00 -3.039324045181274e+00 -2.843376636505127e+00 1 1 1
34 1  8.114109039306641e+00 -2.780968666076660e+00 -3.238951444625854e+00 1 1 1
35 3  8.494097709655762e+00 -2.466393947601318e+00 -3.451853513717651e+00 1 1 1
36 4  8.978047370910645e+00 -2.234600543975830e+00 -3.479564189910889e+00 1 1 1
37 2  9.506150245666504e+00 -2.193185567855835e+00 -3.389873504638672e+00 1 1 1
38 1  1.000197410583496e+01 -2.377345800399780e+00 -3.295195102691650e+00 1 1 1
39 1  1.040121555328369e+01 -2.736628532409668e+00 -3.309971809387207e+00 1 1 1
40 2  1.067624950408936e+01 -3.154030323028564e+00 -3.506873369216919e+00 1 1 1
41 3  1.084683132171631e+01 -3.490489244461060e+00 -3.889479637145996e+00 1 1 1
42 2  1.097223567962646e+01 -3.637719154357910e+00 -4.390754222869873e+00 1 1 1
43 2  1.112887954711914e+01 -3.559193611145020e+00 -4.898685932159424e+00 1 1 1
44 3  1.138144493103027e+01 -3.304358482360840e+00 -5.298613071441650e+00 1 1 1
45 2  1.175800704956055e+01 -2.989422321319580e+00 -5.516994476318359e+00 1 1 1
46 3  1.223976135253906e+01 -2.753628492355347e+00 -5.549186229705811e+00 1 1 1
47 3  1.276766967773438e+01 -2.705998182296753e+00 -5.461316585540771e+00 1 1 1
48 2  1.326536846160889e+01 -2.884196281433105e+00 -5.365233898162842e+00 1 1 1
49 3  1.366790962219238e+01 -3.239907026290894e+00 -5.375658988952637e+00 1 1 1
50 3 -4.749428272247314e+00  5.444515228271484e+00  6.196443080902100e+00 2 1 1
51 2 -4.321525096893311e+00  5.218411922454834e+00  6.429678440093994e+00 2 1 1
52 4 -4.008101463317871e+00  4.810889720916748e+00  6.585871696472168e+00 2 1 1
53 1 -3.801241636276245e+00  4.315631389617920e+00  6.560612678527832e+00 2 1 1
54 3 -3.652346372604370e+00  3.859705448150635e+00  6.318499088287354e+00 2 1 1
55 2 -3.490944862365723e+00  3.555147647857666e+00  5.906321525573730e+00 2 1 1
56 1 -3.251163721084595e+00  3.456456184387207e+00  5.435747623443604e+00 2 1 1
57 2 -2.897001028060913e+00  3.540083885192871e+00  5.040397644042969e+00 2 1 1
58 2 -2.435932397842407e+00  3.713035821914673e+00  4.825489997863770e+00 2 1 1
59 4 -1.916038751602173e+00  3.848485708236694e+00  4.827617168426514e+00 2 1 1
60 1 -1.407602190971375e+00  3.833770275115967e+00  5.000784397125244e+00 2 1 1
61 2 -9.767910242080688e-01  3.613419771194458e+00  5.234293937683105e+00 2 1 1
62 2 -6.601511240005493e-01  3.209979295730591e+00  5.394351482391357e+00 2 1 1
63 2 -4.507784545421600e-01  2.715528011322021e+00  5.375024795532227e+00 2 1 1
64 3 -3.011918962001801e-01  2.256778240203857e+00  5.138667106628418e+00 2 1 1
65 4 -1.411148160696030e-01  1.946907162666321e+00  4.729979515075684e+00 2 1 1
66 1  9.583987295627594e-02  1.842498064041138e+00  4.259193420410156e+00 2 1 1
67 2  4.466871023178101e-01  1.921986937522888e+00  3.860084772109985e+00 2 1 1
68 3  9.051985144615173e-01  2.094131469726562e+00  3.639245510101318e+00 2 1 1
69 1  1.424448370933533e+00  2.232297897338867e+00  3.635543346405029e+00 2 1 1
70 3  1.934160828590393e+00  2.222924470901489e+00  3.805220842361450e+00 2 1 1
71 1  2.367780208587646e+00  2.008365631103516e+00  4.038889884948730e+00 2 1 1
72 1  2.687746047973633e+00  1.609007835388184e+00  4.202576160430908e+00 2 1 1
73 3  2.899614810943604e+00  1.115407824516296e+00  4.189240455627441e+00 2 1 1
74 3  3.049951791763306e+00  6.539784073829651e-01  3.958605289459229e+00 2 1 1
75 3  3.208768844604492e+00  3.388436138629913e-01  3.553474426269531e+00 2 1 1
76 2  3.442882776260376e+00  2.286350429058075e-01  3.082592725753784e+00 2 1 1
77 1  4.135124206542969e+00 -8.701213598251343e-01  2.670354843139648e+00 2 1 1
78 1  4.396720409393311e+00 -1.319992661476135e+00  2.536687135696411e+00 2 1 1
79 1  5.063648700714111e+00 -2.548434495925903e+00  2.246921777725220e+00 2 1 1
80 1  4.843973159790039e+00 -3.036695241928101e+00  2.201856374740601e+00 2 1 1
81 1  4.841409683227539e+00 -3.564118623733521e+00  2.099552154541016e+00 2 1 1
82 4  5.055359840393066e+00 -4.055237770080566e+00  2.058411121368408e+00 2 1 1
83 1  5.403079509735107e+00 -4.448308944702148e+00  2.173729896545410e+00 2 1 1
84 3  5.750793457031250e+00 -4.718911170959473e+00  2.481266498565674e+00 2 1 1
85 4  5.964943408966064e+00 -4.888962745666504e+00  2.943772315979004e+00 2 1 1
86 3  5.962551116943359e+00 -5.018768310546875e+00  3.465112447738647e+00 2 1 1
87 3  5.742967605590820e+00 -5.183949947357178e+00  3.926896095275879e+00 2 1 1
88 3  5.388108253479004e+00 -5.446562290191650e+00  4.233139991760254e+00 2 1 1
89 2  5.031187534332275e+00 -5.831632614135742e+00  4.347230434417725e+00 2 1 1
90 3  4.806295394897461e+00 -6.317749977111816e+00  4.305316925048828e+00 2 1 1
91 3  4.797304153442383e+00 -6.845126152038574e+00  4.202975749969482e+00 2 1 1
92 4  5.006014347076416e+00 -7.338213920593262e+00  4.158699989318848e+00 2 1 1
93 1  5.351625442504883e+00 -7.734609603881836e+00  4.268783092498779e+00 2 1 1
94 4  5.701289176940918e+00 -8.008478164672852e+00  4.571159839630127e+00 2 1 1
95 2  5.920610904693604e+00 -8.180650711059570e+00  5.030454158782959e+00 2 1 1
96 1  5.924641132354736e+00 -8.310652732849121e+00  5.551754951477051e+00 2 1 1
97 4  5.710375308990479e+00 -8.473834991455078e+00  6.016738414764404e+00 2 1 1
98 2  5.357598304748535e+00 -8.733183860778809e+00  6.328091144561768e+00 2 1 1
99 3  1.496266555786133e+01  4.497292518615723e+00  7.103148460388184e+00 3 1 1
100 2  1.471276950836182e+01  4.066020965576172e+00  6.902634620666504e+00 3 1 1
101 4  1.432884979248047e+01  3.690969467163086e+00  6.877681255340576e+00 3 1 1
102 1  1.383692932128906e+01  3.488879680633545e+00  6.954784870147705e+00 3 1 1
103 3  1.330427932739258e+01  3.510838985443115e+00  7.021317005157471e+00 3 1 1
104 2  1.281329631805420e+01  3.722701072692871e+00  6.968879222869873e+00 3 1 1
105 1  1.243079662322998e+01  4.018272876739502e+00  6.734339714050293e+00 3 1 1
106 3  1.218230724334717e+01  4.259501934051514e+00  6.323561668395996e+00 3 1 1
107 2  1.204244804382324e+01  4.329025268554688e+00  5.809484481811523e+00 3 1 1
108 1  1.194455051422119e+01  4.174653053283691e+00  5.304208755493164e+00 3 1 1
109 4  1.180602741241455e+01  3.829320669174194e+00  4.916617870330811e+00 3 1 1
110 1  1.155970478057861e+01  3.398484468460083e+00  4.710719585418701e+00 3 1 1
111 3  1.117940425872803e+01  3.020045995712280e+00  4.681689739227295e+00 3 1 1
112 4  1.068978404998779e+01  2.812134504318237e+00  4.757256507873535e+00 3 1 1
113 3  1.015710544586182e+01  2.827882528305054e+00  4.825724601745605e+00 3 1 1
114 3  9.663910865783691e+00  3.035646915435791e+00  4.777782917022705e+00 3 1 1
115 4  9.277839660644531e+00  3.330744266510010e+00  4.548561573028564e+00 3 1 1
116 2  9.025741577148438e+00  3.575269699096680e+00  4.141972541809082e+00 3 1 1
117 2  8.883607864379883e+00  3.650646924972534e+00  3.629307508468628e+00 3 1 1
118 3  8.785656929016113e+00  3.502466440200806e+00  3.122272491455078e+00 3 1 1
119 4  8.649300575256348e+00  3.161299228668213e+00  2.730204343795776e+00 3 1 1
120 2  8.406564712524414e+00  2.730983972549438e+00  2.519055604934692e+00 3 1 1
121 1  8.029856681823730e+00  2.349277973175049e+00  2.485713481903076e+00 3 1 1
122 1  7.542551517486572e+00  2.135534524917603e+00  2.559864282608032e+00 3 1 1
123 2  7.009929656982422e+00  2.145090818405151e+00  2.630092859268188e+00 3 1 1
124 4  6.514621257781982e+00  2.348658800125122e+00  2.586558341979980e+00 3 1 1
125 1  5.353121757507324e+00  1.853102564811707e+00  2.723740339279175e+00 3 1 1
126 1  4.851332187652588e+00  1.695639133453369e+00  2.833698034286499e+00 3 1 1
127 2  3.604952573776245e+00  1.417429685592651e+00  3.207517385482788e+00 3 1 1
128 2  3.094664573669434e+00  1.424232959747314e+00  3.039513826370239e+00 3 1 1
129 2  2.575849056243896e+00  1.284643769264221e+00  3.046218395233154e+00 3 1 1
130 4  2.118532657623291e+00  1.113021612167358e+00  3.269940614700317e+00 3 1 1
131 4  1.769317865371704e+00  1.035484671592712e+00  3.670907497406006e+00 3 1 1
132 2  1.533837318420410e+00  1.142842888832092e+00  4.141757488250732e+00 3 1 1
133 4  1.374340295791626e+00  1.455361247062683e+00  4.548659801483154e+00 3 1 1
134 2  1.224368691444397e+00  1.915479660034180e+00  4.782132625579834e+00 3 1 1
135 3  1.013849377632141e+00  2.409512281417847e+00  4.798532009124756e+00 3 1 1
136 4  6.954550743103027e-01  2.810934305191040e+00  4.636659145355225e+00 3 1 1
137 1  2.632470130920410e-01  3.028371572494507e+00  4.403035163879395e+00 3 1 1
138 2 -2.457870692014694e-01  3.040425539016724e+00  4.231523513793945e+00 3 1 1
139 3 -7.653766274452209e-01  2.903570175170898e+00  4.232335090637207e+00 3 1 1
140 3 -1.225180149078369e+00  2.731025218963623e+00  4.450303077697754e+00 3 1 1
141 3 -1.577679634094238e+00  2.649435281753540e+00  4.847462177276611e+00 3 1 1
142 4 -1.816042661666870e+00  2.750985145568848e+00  5.318142890930176e+00 3 1 1
143 1 -1.976758599281311e+00  3.058242321014404e+00  5.728548526763916e+00 3 1 1
144 3 -2.125990390777588e+00  3.515547752380371e+00  5.967845439910889e+00 3 1 1
145 3 -2.334116935729980e+00  4.010469436645508e+00  5.990117549896240e+00 3 1 1
146 3  4.908801555633545e+00  1.105724620819092e+01 -7.403257369995117e+00 4 1 1
147 2  5.221852779388428e+00  1.062546348571777e+01 -7.338112831115723e+00 4 1 1
148 4  5.579981327056885e+00  1.031488704681396e+01 -7.085230827331543e+00 4 1 1
149 1  5.843711853027344e+00  1.011946582794189e+01 -6.659816265106201e+00 4 1 1
150 3  5.909316062927246e+00  9.989480018615723e+00 -6.142639636993408e+00 4 1 1
151 2  5.748382091522217e+00  9.850416183471680e+00 -5.649244785308838e+00 4 1 1
152 1  5.418617725372314e+00  9.630971908569336e+00 -5.286198139190674e+00 4 1 1
153 3  5.041830062866211e+00  9.290630340576172e+00 -5.110612392425537e+00 4 1 1
154 2  4.757562637329102e+00  8.834667205810547e+00 -5.108254432678223e+00 4 1 1
155 2  4.670542716979980e+00  8.312319755554199e+00 -5.199147701263428e+00 4 1 1
156 1  4.810162544250488e+00  7.798055648803711e+00 -5.267898559570312e+00 4 1 1
157 4  5.120036125183105e+00  7.363299846649170e+00 -5.207474708557129e+00 4 1 1
158 1  5.478861808776855e+00  7.049168586730957e+00 -4.959997177124023e+00 4 1 1
159 1  5.746906757354736e+00  6.851093292236328e+00 -4.538554668426514e+00 4 1 1
160 2  5.818780422210693e+00  6.720259189605713e+00 -4.022437572479248e+00 4 1 1
161 2  5.663789749145508e+00  6.582427501678467e+00 -3.526787996292114e+00 4 1 1
162 4  5.337223052978516e+00  6.366012573242188e+00 -3.159088850021362e+00 4 1 1
163 3  4.959782600402832e+00  6.029160976409912e+00 -2.978103399276733e+00 4 1 1
164 3  4.671303749084473e+00  5.575901985168457e+00 -2.971732378005981e+00 4 1 1
165 3  4.577982425689697e+00  5.054480075836182e+00 -3.061556100845337e+00 4 1 1
166 1  4.711681842803955e+00  4.538934707641602e+00 -3.132503509521484e+00 4 1 1
167 3  5.018187522888184e+00  4.101175308227539e+00 -3.076762199401855e+00 4 1 1
168 2  5.377639293670654e+00  3.783539295196533e+00 -2.834683656692505e+00 4 1 1
169 3  5.649847984313965e+00  3.582706689834595e+00 -2.417255401611328e+00 4 1 1
170 4  5.728040695190430e+00  3.450984239578247e+00 -1.902267694473267e+00 4 1 1
171 1  5.578976631164551e+00  3.314409255981445e+00 -1.404418826103210e+00 4 1 1
172 1  6.194816589355469e+00  2.990547657012939e+00 -7.267359644174576e-02 4 1 1
173 1  6.427900791168213e+00  2.910996198654175e+00  4.048507809638977e-01 4 1 1
174 1  7.070909023284912e+00  2.827245712280273e+00  1.637057423591614e+00 4 1 1
175 3  7.206170558929443e+00  3.166363239288330e+00  2.031272888183594e+00 4 1 1
176 4  7.304149627685547e+00  3.311395168304443e+00  2.539244890213013e+00 4 1 1
177 4  7.447450160980225e+00  3.233132123947144e+00  3.051139593124390e+00 4 1 1
178 3  7.701404571533203e+00  2.986917018890381e+00  3.455603599548340e+00 4 1 1
179 1  8.089223861694336e+00  2.692144870758057e+00  3.682199954986572e+00 4 1 1
180 2  8.583516120910645e+00  2.486439228057861e+00  3.727935552597046e+00 4 1 1
181 3  9.116136550903320e+00  2.473749876022339e+00  3.658584117889404e+00 4 1 1
182 3  9.604645729064941e+00  2.684685230255127e+00  3.583673477172852e+00 4 1 1
183 1  9.983134269714355e+00  3.064729928970337e+00  3.614885568618774e+00 4 1 1
184 2  1.022764396667480e+01  3.495323419570923e+00  3.823348999023438e+00 4 1 1
185 2  1.036510658264160e+01  3.838635683059692e+00  4.213218212127686e+00 4 1 1
186 1  1.046302700042725e+01  3.989865779876709e+00  4.719367980957031e+00 4 1 1
187 2  1.060400676727295e+01  3.917427539825439e+00  5.232736587524414e+00 4 1 1
188 4  1.085434341430664e+01  3.674542188644409e+00  5.641458988189697e+00 4 1 1
189 1  1.123857879638672e+01  3.379159450531006e+00  5.873360157012939e+00 4 1 1
190 4  1.173065280914307e+01  3.169301271438599e+00  5.923514842987061e+00 4 1 1
191 3  1.226334095001221e+01  3.150462388992310e+00  5.856050491333008e+00 4 1 1
192 2  1.275414562225342e+01  3.355477809906006e+00  5.779716968536377e+00 4 1 1
193 3 -4.342011451721191e+00 -5.733671665191650e+00 -6.734936237335205e+00 5 1 1
194 2 -3.854754924774170e+00 -5.588937282562256e+00 -6.909053802490234e+00 5 1 1
195 4 -3.478106498718262e+00 -5.244978904724121e+00 -7.077794551849365e+00 5 1 1
196 1 -3.235243558883667e+00 -4.767477035522461e+00 -7.119060993194580e+00 5 1 1
197 3 -3.098608970642090e+00 -4.272938251495361e+00 -6.959446907043457e+00 5 1 1
198 2 -3.000308990478516e+00 -3.884432077407837e+00 -6.601614952087402e+00 5 1 1
199 1 -2.857830524444580e+00 -3.684473037719727e+00 -6.123664379119873e+00 5 1 1
200 2 -2.605400323867798e+00 -3.684215068817139e+00 -5.649397850036621e+00 5 1 1
201 1 -2.219162702560425e+00 -3.818778991699219e+00 -5.300957679748535e+00 5 1 1
202 3 -1.725954532623291e+00 -3.972187757492065e+00 -5.152941226959229e+00 5 1 1
203 4 -1.193349957466125e+00 -4.021204471588135e+00 -5.203802108764648e+00 5 1 1
204 2 -7.037631869316101e-01 -3.882246255874634e+00 -5.376175403594971e+00 5 1 1
205 1 -3.234462738037109e-01 -3.543220043182373e+00 -5.546827793121338e+00 5 1 1
206 1 -7.696435600519180e-02 -3.068017482757568e+00 -5.592935562133789e+00 5 1 1
207 2  6.177625432610512e-02 -2.572278738021851e+00 -5.439242839813232e+00 5 1 1
208 4  1.600452214479446e-01 -2.179340600967407e+00 -5.086164474487305e+00 5 1 1
209 2  3.002646863460541e-01 -1.973606586456299e+00 -4.610036373138428e+00 5 1 1
210 1  5.490347743034363e-01 -1.968326568603516e+00 -4.133797645568848e+00 5 1 1
211 3  9.316463470458984e-01 -2.100629806518555e+00 -3.780634880065918e+00 5 1 1
212 3  1.422714471817017e+00 -2.255218267440796e+00 -3.626686573028564e+00 5 1 1
213 4  1.955382466316223e+00 -2.308552980422974e+00 -3.672663688659668e+00 5 1 1
214 2  2.447178125381470e+00 -2.175368547439575e+00 -3.843218088150024e+00 5 1 1
215 3  2.831088781356812e+00 -1.841420173645020e+00 -4.015646457672119e+00 5 1 1
216 4  3.081154823303223e+00 -1.368581414222717e+00 -4.066592693328857e+00 5 1 1
217 1  3.222168207168579e+00 -8.716194629669189e-01 -3.918865680694580e+00 5 1 1
218 2  3.320394515991211e+00 -4.744239449501038e-01 -3.570606470108032e+00 5 1 1
219 2  3.458429098129272e+00 -2.629056870937347e-01 -3.096363544464111e+00 5 1 1
220 1  4.094056606292725e+00  8.604605197906494e-01 -2.622919797897339e+00 5 1 1
221 1  4.339445590972900e+00  1.304776072502136e+00 -2.446710586547852e+00 5 1 1
222 3  4.967294692993164e+00  2.470186233520508e+00 -2.011315107345581e+00 5 1 1
223 4  4.662495136260986e+00  2.909392118453979e+00 -2.064688682556152e+00 5 1 1
224 1  4.531763553619385e+00  3.425565958023071e+00 -1.992704272270203e+00 5 1 1
225 2  4.628267288208008e+00  3.946512937545776e+00 -1.903454065322876e+00 5 1 1
226 3  4.918807029724121e+00  4.398370742797852e+00 -1.911890387535095e+00 5 1 1
227 2  5.296530246734619e+00  4.733472824096680e+00 -2.095538139343262e+00 5 1 1
228 4  5.621425628662109e+00  4.948451042175293e+00 -2.465608596801758e+00 5 1 1
229 2  5.773432731628418e+00  5.085585594177246e+00 -2.962359905242920e+00 5 1 1
230 2  5.698373794555664e+00  5.216896533966064e+00 -3.477906227111816e+00 5 1 1
231 2  5.428243637084961e+00  5.416392803192139e+00 -3.897338867187500e+00 5 1 1
232 1  5.069102764129639e+00  5.732206821441650e+00 -4.142147064208984e+00 5 1 1
233 3  4.760938644409180e+00  6.168526649475098e+00 -4.200203895568848e+00 5 1 1
234 3  4.624207973480225e+00  6.683380603790283e+00 -4.130342960357666e+00 5 1 1
235 4  4.714422702789307e+00  7.205290794372559e+00 -4.040024280548096e+00 5 1 1
236 4  5.000769138336182e+00  7.659893512725830e+00 -4.044383525848389e+00 5 1 1
237 1  5.377925872802734e+00  7.998497009277344e+00 -4.222644329071045e+00 5 1 1
238 4  5.706105232238770e+00  8.216405868530273e+00 -4.587956428527832e+00 5 1 1
239 3  5.864059448242188e+00  8.354893684387207e+00 -5.082568168640137e+00 5 1 1
240 3  5.795350551605225e+00  8.485279083251953e+00 -5.599196910858154e+00 5 1 1
241 2  5.529440402984619e+00  8.682014465332031e+00 -6.022649288177490e+00 5 1 1
242 3  1.575540161132812e+01 -4.251791000366211e+00 -6.973001956939697e+00 6 1 1
243 2  1.558138179779053e+01 -3.909412622451782e+00 -6.597198009490967e+00 6 1 1
244 4  1.530117034912109e+01 -3.491609096527100e+00 -6.408556461334229e+00 6 1 1
245 1  1.489700984954834e+01 -3.137635469436646e+00 -6.400249004364014e+00 6 1 1
246 3  1.439843559265137e+01 -2.962486267089844e+00 -6.497138023376465e+00 6 1 1
247 2  1.387059974670410e+01 -3.013152837753296e+00 -6.584000587463379e+00 6 1 1
248 1  1.339003181457520e+01 -3.250935792922974e+00 -6.549481391906738e+00 6 1 1
249 2  1.301512145996094e+01 -3.565958261489868e+00 -6.328380107879639e+00 6 1 1
250 3  1.276425457000732e+01 -3.819078683853149e+00 -5.926284313201904e+00 6 1 1
251 2  1.260852813720703e+01 -3.894585847854614e+00 -5.417609214782715e+00 6 1 1
252 2  1.248305511474609e+01 -3.744327068328857e+00 -4.917286396026611e+00 6 1 1
253 3  1.231134414672852e+01 -3.405822515487671e+00 -4.536946773529053e+00 6 1 1
254 2  1.203455066680908e+01 -2.988234281539917e+00 -4.342810630798340e+00 6 1 1
255 3  1.163368225097656e+01 -2.630725145339966e+00 -4.330210208892822e+00 6 1 1
256 3  1.113692283630371e+01 -2.449572086334229e+00 -4.425561428070068e+00 6 1 1
257 2  1.060885334014893e+01 -2.494090795516968e+00 -4.514364242553711e+00 6 1 1
258 3  1.012607860565186e+01 -2.727893829345703e+00 -4.484455585479736e+00 6 1 1
259 4  9.747757911682129e+00 -3.042644023895264e+00 -4.268780708312988e+00 6 1 1
260 4  9.493557929992676e+00 -3.299261569976807e+00 -3.871028423309326e+00 6 1 1
261 3  9.335961341857910e+00 -3.380790710449219e+00 -3.363829374313354e+00 6 1 1
262 1  9.210680007934570e+00 -3.236677169799805e+00 -2.861678600311279e+00 6 1 1
263 2  9.041186332702637e+00 -2.902210950851440e+00 -2.476799488067627e+00 6 1 1
264 4  8.767831802368164e+00 -2.484987020492554e+00 -2.277183532714844e+00 6 1 1
265 1  8.370204925537109e+00 -2.123962879180908e+00 -2.260293483734131e+00 6 1 1
266 2  7.875392913818359e+00 -1.936867833137512e+00 -2.354066610336304e+00 6 1 1
267 3  7.347186565399170e+00 -1.975185751914978e+00 -2.444696187973022e+00 6 1 1
268 2  6.862158298492432e+00 -2.204941987991333e+00 -2.419255971908569e+00 6 1 1
269 1  5.688542366027832e+00 -1.774699926376343e+00 -2.580778121948242e+00 6 1 1
270 1  5.187578201293945e+00 -1.618838191032410e+00 -2.696637153625488e+00 6 1 1
271 3  4.022569179534912e+00 -1.321876049041748e+00 -3.076783895492554e+00 6 1 1
272 3  3.529692649841309e+00 -1.452200055122375e+00 -2.907118082046509e+00 6 1 1
273 4  2.997021198272705e+00 -1.396734356880188e+00 -2.863614320755005e+00 6 1 1
274 1  2.507150173187256e+00 -1.241532921791077e+00 -3.020460605621338e+00 6 1 1
275 2  2.126329660415649e+00 -1.110495209693909e+00 -3.376107931137085e+00 6 1 1
276 3  1.879349470138550e+00 -1.118273138999939e+00 -3.853231668472290e+00 6 1 1
277 1  1.740206241607666e+00 -1.326826810836792e+00 -4.328412532806396e+00 6 1 1
278 2  1.641944646835327e+00 -1.721937537193298e+00 -4.679082870483398e+00 6 1 1
279 2  1.502110838890076e+00 -2.218278169631958e+00 -4.829766750335693e+00 6 1 1
280 4  1.253844380378723e+00 -2.692317485809326e+00 -4.781240940093994e+00 6 1 1
281 3  8.716943264007568e-01 -3.028835773468018e+00 -4.609637260437012e+00 6 1 1
282 1  3.810212314128876e-01 -3.164877653121948e+00 -4.438204765319824e+00 6 1 1
283 3 -1.515917629003525e-01 -3.113728284835815e+00 -4.389820098876953e+00 6 1 1
284 4 -6.437445878982544e-01 -2.959719657897949e+00 -4.540704250335693e+00 6 1 1
285 4 -1.028208255767822e+00 -2.826252698898315e+00 -4.891626358032227e+00 6 1 1
286 3 -1.278761267662048e+00 -2.829043149948120e+00 -5.366857528686523e+00 6 1 1
287 1 -1.420157909393311e+00 -3.031852006912231e+00 -5.843916893005371e+00 6 1 1
288 2 -1.518398046493530e+00 -3.422586441040039e+00 -6.199346542358398e+00 6 1 1
289 4 -1.656123042106628e+00 -3.917774677276611e+00 -6.356024265289307e+00 6 1 1
290 3 -1.900768995285034e+00 -4.394136905670166e+00 -6.312283039093018e+00 6 1 1

# Atom-ID, translational, rotational velocity
Velocities

1  0.000000000000000e+00  0.000000000000000e+00  0.000000000000000e+00  0.000000000000000e+00  0.000000000000000e+00  0.000000000000000e+00
2  0.000000000000000e+00  0.000000000000000e+00  0.000000000000000e+00  0.000000000000000e+00  0.000000000000000e+00  0.000000000000000e+00
3  0.000000000000000e+00  0.000000000000000e+00  0.000000000000000e+00  0.000000000000000e+00  0.000000000000000e+00  0.000000000000000e+00
4  0.000000000000000e+00  0.000000000000000e+00  0.000000000000000e+00  0.000000000000000e+00  0.000000000000000e+00  0.000000000000000e+00
5  0.000000000000000e+00  0.000000000000000e+00  0.000000000000000e+00  0.000000000000000e+00  0.000000000000000e+00  0.000000000000000e+00
6  0.000000000000000e+00  0.000000000000000e+00  0.000000000000000e+00  0.000000000000000e+00  0.000000000000000e+00  0.000000000000000e+00
7  0.000000000000000e+00  0.000000000000000e+00  0.000000000000000e+00  0.000000000000000e+00  0.000000000000000e+00  0.000000000000000e+00
8  0.000000000000000e+00  0.000000000000000e+00  0.000000000000000e+00  0.000000000000000e+00  0.000000000000000e+00  0.000000000000000e+00
9  0.000000000000000e+00  0.000000000000000e+00  0.000000000000000e+00  0.000000000000000e+00  0.000000000000000e+00  0.000000000000000e+00
10  0.000000000000000e+00  0.000000000000000e+00  0.000000000000000e+00  0.000000000000000e+00  0.000000000000000e+00  0.000000000000000e+00
11  0.000000000000000e+00  0.000000000000000e+00  0.000000000000000e+00  0.000000000000000e+00  0.000000000000000e+00  0.000000000000000e+00
12  0.000000000000000e+00  0.000000000000000e+00  0.000000000000000e+00  0.000000000000000e+00  0.000000000000000e+00  0.000000000000000e+00
13  0.000000000000000e+00  0.000000000000000e+00  0.000000000000000e+00  0.000000000000000e+00  0.000000000000000e+00  0.000000000000000e+00
14  0.000000000000000e+00  0.000000000000000e+00  0.000000000000000e+00  0.000000000000000e+00  0.000000000000000e+00  0.000000000000000e+00
15  0.000000000000000e+00  0.000000000000000e+00  0.000000000000000e+00  0.000000000000000e+00  0.000000000000000e+00  0.000000000000000e+00
16  0.000000000000000e+00  0.000000000000000e+00  0.000000000000000e+00  0.000000000000000e+00  0.000000000000000e+00  0.000000000000000e+00
17  0.000000000000000e+00  0.000000000000000e+00  0.000000000000000e+00  0.000000000000000e+00  0.000000000000000e+00  0.000000000000000e+00
18  0.000000000000000e+00  0.000000000000000e+00  0.000000000000000e+00  0.000000000000000e+00  0.000000000000000e+00  0.000000000000000e+00
19  0.000000000000000e+00  0.000000000000000e+00  0.000000000000000e+00  0.000000000000000e+00  0.000000000000000e+00  0.000000000000000e+00
20  0.000000000000000e+00  0.000000000000000e+00  0.000000000000000e+00  0.000000000000000e+00  0.000000000000000e+00  0.000000000000000e+00
21  0.000000000000000e+00  0.000000000000000e+00  0.000000000000000e+00  0.000000000000000e+00  0.000000000000000e+00  0.000000000000000e+00
22  0.000000000000000e+00  0.000000000000000e+00  0.000000000000000e+00  0.000000000000000e+00  0.000000000000000e+00  0.000000000000000e+00
23  0.000000000000000e+00  0.000000000000000e+00  0.000000000000000e+00  0.000000000000000e+00  0.000000000000000e+00  0.000000000000000e+00
24  0.000000000000000e+00  0.000000000000000e+00  0.000000000000000e+00  0.000000000000000e+00  0.000000000000000e+00  0.000000000000000e+00
25  0.000000000000000e+00  0.000000000000000e+00  0.000000000000000e+00  0.000000000000000e+00  0.000000000000000e+00  0.000000000000000e+00
26  0.000000000000000e+00  0.000000000000000e+00  0.000000000000000e+00  0.000000000000000e+00  0.000000000000000e+00  0.000000000000000e+00
27  0.000000000000000e+00  0.000000000000000e+00  0.000000000000000e+00  0.000000000000000e+00  0.000000000000000e+00  0.000000000000000e+00
28  0.000000000000000e+00  0.000000000000000e+00  0.000000000000000e+00  0.000000000000000e+00  0.000000000000000e+00  0.000000000000000e+00
29  0.000000000000000e+00  0.000000000000000e+00  0.000000000000000e+00  0.000000000000000e+00  0.000000000000000e+00  0.000000000000000e+00
30  0.000000000000000e+00  0.000000000000000e+00  0.000000000000000e+00  0.000000000000000e+00  0.000000000000000e+00  0.000000000000000e+00
31  0.000000000000000e+00  0.000000000000000e+00  0.000000000000000e+00  0.000000000000000e+00  0.000000000000000e+00  0.000000000000000e+00
32  0.000000000000000e+00  0.000000000000000e+00  0.000000000000000e+00  0.000000000000000e+00  0.000000000000000e+00  0.000000000000000e+00
33  0.000000000000000e+00  0.000000000000000e+00  0.000000000000000e+00  0.000000000000000e+00  0.000000000000000e+00  0.000000000000000e+00
34  0.000000000000000e+00  0.000000000000000e+00  0.000000000000000e+00  0.000000000000000e+00  0.000000000000000e+00  0.000000000000000e+00
35  0.000000000000000e+00  0.000000000000000e+00  0.000000000000000e+00  0.000000000000000e+00  0.000000000000000e+00  0.000000000000000e+00
36  0.000000000000000e+00  0.000000000000000e+00  0.000000000000000e+00  0.000000000000000e+00  0.000000000000000e+00  0.000000000000000e+00
37  0.000000000000000e+00  0.000000000000000e+00  0.000000000000000e+00  0.000000000000000e+00  0.000000000000000e+00  0.000000000000000e+00
38  0.000000000000000e+00  0.000000000000000e+00  0.000000000000000e+00  0.000000000000000e+00  0.000000000000000e+00  0.000000000000000e+00
39  0.000000000000000e+00  0.000000000000000e+00  0.000000000000000e+00  0.000000000000000e+00  0.000000000000000e+00  0.000000000000000e+00
40  0.000000000000000e+00  0.000000000000000e+00  0.000000000000000e+00  0.000000000000000e+00  0.000000000000000e+00  0.000000000000000e+00
41  0.000000000000000e+00  0.000000000000000e+00  0.000000000000000e+00  0.000000000000000e+00  0.000000000000000e+00  0.000000000000000e+00
42  0.000000000000000e+00  0.000000000000000e+00  0.000000000000000e+00  0.000000000000000e+00  0.000000000000000e+00  0.000000000000000e+00
43  0.000000000000000e+00  0.000000000000000e+00  0.000000000000000e+00  0.000000000000000e+00  0.000000000000000e+00  0.000000000000000e+00
44  0.000000000000000e+00  0.000000000000000e+00  0.000000000000000e+00  0.000000000000000e+00  0.000000000000000e+00  0.000000000000000e+00