LAMMPS (29 Sep 2021 - Update 2)
#The sequence-specific interactions can be turned on/off choosing between seqdep/seqav
variable seqspec index seqdep

#Specify the temperature of the system (0.1 in SU is equivalent to 300K)
variable tem equal 0.1


### Salt concentration  ####
############################
#Specify the salt concentration the system (1.0 in SU is equivalent to 1M [NaCl])
variable sc   equal 0.15

#Effective charge in elementary charges
variable qeff equal 0.815


### Stacking parameters ####
############################
#Temperature-independent coefficient in stacking strength
variable xi    equal 1.3523

#Coefficient of linear temperature dependence in stacking strength
variable kappa equal 2.6717


### Hbond parameters ####
#########################
#Energy: 1.0678 (between base pairs A-T and C-G) and 0 (all other pairs)
variable eps equal 1.0678


#5.- The damp parameter. The default value is 0.03. The accelerated value is 1.0
variable tdamp    equal 0.03
variable tdampacc equal 2.5


#6.- The total number of nucleotides in the system
variable N equal 147

variable seed equal 402987

#The times
variable dumpfreq   equal 100000
variable trestart   equal 10000000

#total running time
variable runtime1 equal 1000000000
variable runtime2 equal 200000000



units lj

dimension 3

newton off

boundary  p p p

atom_style hybrid bond ellipsoid oxdna
WARNING: Write_data command requires newton on to preserve 3'->5' bond polarity (../atom_vec_oxdna.cpp:52)
WARNING: Atom style hybrid defines both, per-type and per-atom masses; both must be set, but only per-atom masses will be used (../atom_vec_hybrid.cpp:157)
atom_modify sort 0 1.0

# Pair interactions require lists of neighbours to be calculated
neighbor 2.0 bin
neigh_modify every 1 delay 0 check yes

restart ${trestart} oxDNA.equil.N${N}.Restart
restart 10000000 oxDNA.equil.N${N}.Restart
restart 10000000 oxDNA.equil.N147.Restart
#read_data val3.lammps.txt
read_restart data/oxDNA.equil.N${N}.Restart.20000000
read_restart data/oxDNA.equil.N147.Restart.20000000
Reading restart file ...
  restart file = 29 Sep 2021, LAMMPS = 29 Sep 2021
WARNING: Write_data command requires newton on to preserve 3'->5' bond polarity (../atom_vec_oxdna.cpp:52)
WARNING: Atom style hybrid defines both, per-type and per-atom masses; both must be set, but only per-atom masses will be used (../atom_vec_hybrid.cpp:157)
  restoring atom style hybrid from restart
  orthogonal box = (0.0000000 0.0000000 0.0000000) to (34.000000 34.000000 34.000000)
  1 by 1 by 1 MPI processor grid
  restoring pair style hybrid/overlay from restart
  restoring bond style oxdna2/fene from restart
  194 atoms
  190 bonds
Finding 1-2 1-3 1-4 neighbors ...
  special bond factors lj:    0        1        1       
  special bond factors coul:  0        0        0       
     2 = max # of 1-2 neighbors
     2 = max # of 1-3 neighbors
     4 = max # of 1-4 neighbors
     6 = max # of special neighbors
  special bonds CPU = 0.000 seconds
  read_restart CPU = 0.017 seconds
reset_timestep 0

set atom * mass 3.1575
Setting atom values ...
  194 settings made for mass

#Groups
group all type 1:4
194 atoms in group all


# oxDNA2 bond interactions - FENE backbone
bond_style oxdna2/fene
bond_coeff * 2.0 0.25 0.7564
special_bonds lj 0 1 1

# oxDNA2 pair interactions
pair_style hybrid/overlay oxdna2/excv oxdna2/stk oxdna2/hbond oxdna2/xstk oxdna2/coaxstk oxdna2/dh
pair_coeff * * oxdna2/excv               2.0 0.7 0.675 2.0 0.515 0.5 2.0 0.33 0.32
pair_coeff * * oxdna2/stk     ${seqspec} ${tem} ${xi} ${kappa} 6.0 0.4 0.9 0.32 0.75 1.3 0 0.8 0.9 0 0.95 0.9 0 0.95 2.0 0.65 2.0 0.65
pair_coeff * * oxdna2/stk     seqdep ${tem} ${xi} ${kappa} 6.0 0.4 0.9 0.32 0.75 1.3 0 0.8 0.9 0 0.95 0.9 0 0.95 2.0 0.65 2.0 0.65
pair_coeff * * oxdna2/stk     seqdep 0.1 ${xi} ${kappa} 6.0 0.4 0.9 0.32 0.75 1.3 0 0.8 0.9 0 0.95 0.9 0 0.95 2.0 0.65 2.0 0.65
pair_coeff * * oxdna2/stk     seqdep 0.1 1.3523 ${kappa} 6.0 0.4 0.9 0.32 0.75 1.3 0 0.8 0.9 0 0.95 0.9 0 0.95 2.0 0.65 2.0 0.65
pair_coeff * * oxdna2/stk     seqdep 0.1 1.3523 2.6717 6.0 0.4 0.9 0.32 0.75 1.3 0 0.8 0.9 0 0.95 0.9 0 0.95 2.0 0.65 2.0 0.65
pair_coeff * * oxdna2/hbond   ${seqspec} 0.0 8.0 0.4 0.75 0.34 0.7 1.5 0 0.7 1.5 0 0.7 1.5 0 0.7 0.46 3.141592653589793 0.7 4.0 1.5707963267948966 0.45 4.0 1.5707963267948966 0.45
pair_coeff * * oxdna2/hbond   seqdep 0.0 8.0 0.4 0.75 0.34 0.7 1.5 0 0.7 1.5 0 0.7 1.5 0 0.7 0.46 3.141592653589793 0.7 4.0 1.5707963267948966 0.45 4.0 1.5707963267948966 0.45
pair_coeff 1 4 oxdna2/hbond   ${seqspec} ${eps} 8.0 0.4 0.75 0.34 0.7 1.5 0 0.7 1.5 0 0.7 1.5 0 0.7 0.46 3.141592653589793 0.7 4.0 1.5707963267948966 0.45 4.0 1.5707963267948966 0.45
pair_coeff 1 4 oxdna2/hbond   seqdep ${eps} 8.0 0.4 0.75 0.34 0.7 1.5 0 0.7 1.5 0 0.7 1.5 0 0.7 0.46 3.141592653589793 0.7 4.0 1.5707963267948966 0.45 4.0 1.5707963267948966 0.45
pair_coeff 1 4 oxdna2/hbond   seqdep 1.0678 8.0 0.4 0.75 0.34 0.7 1.5 0 0.7 1.5 0 0.7 1.5 0 0.7 0.46 3.141592653589793 0.7 4.0 1.5707963267948966 0.45 4.0 1.5707963267948966 0.45
pair_coeff 2 3 oxdna2/hbond   ${seqspec} ${eps} 8.0 0.4 0.75 0.34 0.7 1.5 0 0.7 1.5 0 0.7 1.5 0 0.7 0.46 3.141592653589793 0.7 4.0 1.5707963267948966 0.45 4.0 1.5707963267948966 0.45
pair_coeff 2 3 oxdna2/hbond   seqdep ${eps} 8.0 0.4 0.75 0.34 0.7 1.5 0 0.7 1.5 0 0.7 1.5 0 0.7 0.46 3.141592653589793 0.7 4.0 1.5707963267948966 0.45 4.0 1.5707963267948966 0.45
pair_coeff 2 3 oxdna2/hbond   seqdep 1.0678 8.0 0.4 0.75 0.34 0.7 1.5 0 0.7 1.5 0 0.7 1.5 0 0.7 0.46 3.141592653589793 0.7 4.0 1.5707963267948966 0.45 4.0 1.5707963267948966 0.45
pair_coeff * * oxdna2/xstk               47.5 0.575 0.675 0.495 0.655 2.25 0.791592653589793 0.58 1.7 1.0 0.68 1.7 1.0 0.68 1.5 0 0.65 1.7 0.875 0.68 1.7 0.875 0.68
pair_coeff * * oxdna2/coaxstk            58.5 0.4 0.6 0.22 0.58 2.0 2.891592653589793 0.65 1.3 0 0.8 0.9 0 0.95 0.9 0 0.95 40.0 3.116592653589793
pair_coeff * * oxdna2/dh                 ${tem} ${sc} ${qeff}
pair_coeff * * oxdna2/dh                 0.1 ${sc} ${qeff}
pair_coeff * * oxdna2/dh                 0.1 0.15 ${qeff}
pair_coeff * * oxdna2/dh                 0.1 0.15 0.815


# NVE ensemble
fix 1 all nve/asphere
fix 2 all langevin ${tem} ${tem} ${tdamp} ${seed} angmom 10
fix 2 all langevin 0.1 ${tem} ${tdamp} ${seed} angmom 10
fix 2 all langevin 0.1 0.1 ${tdamp} ${seed} angmom 10
fix 2 all langevin 0.1 0.1 0.03 ${seed} angmom 10
fix 2 all langevin 0.1 0.1 0.03 402987 angmom 10
timestep 1e-3


#Useful commands when running in parallel
#comm_style tiled
#fix 3 all balance 10000 1.1 rcb
#comm_modify cutoff 2.65

thermo 10000
thermo_style custom  step  temp

compute erot all erotate/asphere
compute ekin all ke
compute epot all pe
variable erot equal c_erot
variable ekin equal c_ekin
variable epot equal c_epot
variable etot equal c_erot+c_ekin+c_epot
fix 4 all print ${dumpfreq} "$(step)  ekin = ${ekin} |  erot = ${erot} | epot = ${epot} | etot = ${etot}" screen no append energy_total.txt
fix 4 all print 100000 "$(step)  ekin = ${ekin} |  erot = ${erot} | epot = ${epot} | etot = ${etot}" screen no append energy_total.txt

shell mkdir data
WARNING: Shell command 'mkdir' failed with error 'File exists' (../input.cpp:1213)
shell cd data

#compute shape all property/atom shapex shapey shapez
compute quat all property/atom quatw quati quatj quatk

dump out all custom ${dumpfreq} out.data id mol type x y z ix iy iz c_quat[1] c_quat[2] c_quat[3] c_quat[4]
dump out all custom 100000 out.data id mol type x y z ix iy iz c_quat[1] c_quat[2] c_quat[3] c_quat[4]
dump_modify out sort id
dump_modify out format line "%d %d %d %.6le %.6le %.6le %d %d %d %.6le %.6le %.6le %.6le"

run ${runtime1}
run 1000000000
Neighbor list info ...
  update every 1 steps, delay 0 steps, check yes
  max neighbors/atom: 2000, page size: 100000
  master list distance cutoff = 6.2019411
  ghost atom cutoff = 6.2019411
  binsize = 3.1009705, bins = 11 11 11
  5 neighbor lists, perpetual/occasional/extra = 5 0 0
  (1) pair oxdna2/excv, perpetual
      attributes: half, newton off
      pair build: half/bin/newtoff
      stencil: full/bin/3d
      bin: standard
  (2) pair oxdna2/hbond, perpetual, copy from (1)
      attributes: half, newton off
      pair build: copy
      stencil: none
      bin: none
  (3) pair oxdna2/xstk, perpetual, copy from (1)
      attributes: half, newton off
      pair build: copy
      stencil: none
      bin: none
  (4) pair oxdna2/coaxstk, perpetual, copy from (1)
      attributes: half, newton off
      pair build: copy
      stencil: none
      bin: none
  (5) pair oxdna2/dh, perpetual, copy from (1)
      attributes: half, newton off
      pair build: copy
      stencil: none
      bin: none
Per MPI rank memory allocation (min/avg/max) = 9.754 | 9.754 | 9.754 Mbytes
Step Temp 
       0  0.099707033 
   10000   0.10405757 
   20000  0.093870151 
   30000  0.099364856 
   40000  0.094418873 
   50000   0.11221293 
   60000  0.096239471 
   70000  0.091783218 
   80000   0.10424102 
   90000   0.10100824 
  100000   0.10084292 
  110000   0.10094808 
  120000   0.10531051 
  130000   0.09858631 
  140000   0.10138481 
  150000  0.098693715 
  160000  0.098663904 
  170000    0.1062608 
  180000   0.10005121 
  190000   0.10927985 
  200000   0.10110302 
  210000  0.091153269 
  220000  0.099564328 
  230000  0.095662081 
  240000  0.097418009 
  250000   0.11281702 
  260000  0.097587014 
  270000   0.10341491 
  280000   0.10495588 
  290000  0.099272305 
  300000    0.1042165 
  310000   0.10048968 
  320000   0.11402295 
  330000  0.089576945 
  340000    0.1118587 
  350000   0.11024506 
  360000   0.11343726 
  370000   0.10213082 
  380000  0.091925495 
  390000  0.095390071 
  400000  0.097851004 
  410000   0.10353901 
  420000   0.10488869 
  430000  0.097330625 
  440000  0.092961342 
  450000  0.092744221 
  460000   0.10178468 
  470000  0.090302014 
  480000   0.10258068 
  490000   0.11025619 
  500000  0.089009239 
  510000  0.099028229 
  520000  0.099920661 
  530000   0.10029736 
  540000  0.097406992 
  550000   0.09872461 
  560000   0.10186208 
  570000   0.10087892 
  580000  0.094829949 
  590000  0.093524011 
  600000   0.10091735 
  610000   0.10244352 
  620000   0.11245701 
  630000  0.092752642 
  640000   0.10557372 
  650000   0.10483639 
  660000  0.096041113 
  670000  0.096989753 
  680000   0.10310061 
  690000   0.10434487 
  700000  0.096244509 
  710000   0.10972955 
  720000   0.11045785 
  730000   0.09928736 
  740000   0.09602217 
  750000   0.10181867 
  760000   0.10891054 
  770000   0.10347813 
  780000  0.095506486 
  790000   0.10324519 
  800000   0.10471662 
  810000   0.10765254 
  820000   0.09854472 
  830000   0.10551287 
  840000   0.10609606 
  850000    0.0960992 
  860000   0.10066942 
  870000   0.10152504 
  880000   0.10441749 
  890000   0.10582753 
  900000   0.10711408 
  910000   0.10286166 
  920000  0.099758909 
  930000   0.10294404 
  940000   0.10690531 
  950000  0.090821749 
  960000   0.10335632 
  970000   0.10705769 
  980000  0.098896289 
  990000  0.099975943 
 1000000  0.094801938 
 1010000  0.094706091 
 1020000  0.098276661 
 1030000   0.10478262 
 1040000  0.095609963 
 1050000   0.10194713 
 1060000  0.096139235 
 1070000  0.093737514 
 1080000  0.097969838 
 1090000  0.096558203 
 1100000   0.09313137 
 1110000  0.094500585 
 1120000   0.10121054 
 1130000   0.10398746 
 1140000  0.099333067 
 1150000  0.096957886 
 1160000   0.10115267 
 1170000  0.087875637 
 1180000   0.10482964 
 1190000   0.10104499 
 1200000   0.11057835 
 1210000   0.11738479 
 1220000   0.10069972 
 1230000  0.090386501 
 1240000   0.09252128 
 1250000   0.10444557 
 1260000  0.099621277 
 1270000   0.10781841 
 1280000   0.10315999 
 1290000   0.11860458 
 1300000   0.09966935 
 1310000  0.099124413 
 1320000  0.093223212 
 1330000  0.096121696 
 1340000  0.094350222 
 1350000   0.09976581 
 1360000  0.094959875 
 1370000    0.1046881 
 1380000   0.10332631 
 1390000  0.096001878 
 1400000   0.10039508 
 1410000   0.10481274 
 1420000   0.09926032 
 1430000   0.10576117 
 1440000  0.094091318 
 1450000  0.098740719 
 1460000  0.089493243 
 1470000  0.098144533 
 1480000  0.089664188 
 1490000   0.10209776 
 1500000  0.089505688 
 1510000  0.094606178 
 1520000    0.1012908 
 1530000   0.10201793 
 1540000  0.097943176 
 1550000   0.10635338 
 1560000   0.10035963 
 1570000   0.10593104 
 1580000   0.10468159 
 1590000   0.10368027 
 1600000   0.10222524 
 1610000   0.10174122 
 1620000  0.093612288 
 1630000  0.094830348 
 1640000    0.1074587 
 1650000   0.10581065 
 1660000  0.099744937 
 1670000   0.10202706 
 1680000   0.10577358 
 1690000   0.10221684 
 1700000   0.10546011 
 1710000  0.099475547 
 1720000   0.10106726 
 1730000   0.10510118 
 1740000   0.10636889 
 1750000   0.10641228 
 1760000   0.10002287 
 1770000   0.10345632 
 1780000  0.093162487 
 1790000   0.10497316 
 1800000  0.093677117 
 1810000  0.099282787 
 1820000  0.092070916 
 1830000   0.10455545 
 1840000  0.099059561 
 1850000   0.10333164 
 1860000   0.10249508 
 1870000  0.097461953 
 1880000   0.10652968 
 1890000   0.10457867 
 1900000   0.10240108 
 1910000  0.096783793 
 1920000  0.092554022 
 1930000  0.099213999 
 1940000  0.094164159 
 1950000   0.10056212 
 1960000  0.097787714 
 1970000   0.10436375 
 1980000  0.095392998 
 1990000  0.096895765 
 2000000   0.11385504 
 2010000  0.093833109 
 2020000   0.10814778 
 2030000   0.10413472 
 2040000  0.098608195 
 2050000   0.10041182 
 2060000   0.10356263 
 2070000   0.09722476 
 2080000   0.10120373 
 2090000   0.10257379 
 2100000  0.098065389 
 2110000   0.09242295 
 2120000   0.10392797 
 2130000   0.10083418 
 2140000   0.10639155 
 2150000   0.10321545 
 2160000  0.093088094 
 2170000   0.10089895 
 2180000  0.092603968 
 2190000   0.10324645 
 2200000   0.10165713 
 2210000  0.096199768 
 2220000  0.096771043 
 2230000   0.10907014 
 2240000   0.10346667 
 2250000  0.096954971 
 2260000   0.09942214 
 2270000  0.098827752 
 2280000  0.099233424 
 2290000   0.10215475 
 2300000  0.090563739 
 2310000    0.1033328 
 2320000   0.10646735 
 2330000   0.10887515 
 2340000   0.10015555 
 2350000   0.10687232 
 2360000   0.09575125 
 2370000  0.094245201 
 2380000   0.10066782 
 2390000   0.10225258 
 2400000  0.095706238 
 2410000   0.10216419 
 2420000    0.1052167 
 2430000  0.094013021 
 2440000    0.1011548 
 2450000  0.094414096 
 2460000   0.10994524 
 2470000   0.10098626 
 2480000   0.09377321 
 2490000  0.097803514 
 2500000  0.090987879 
 2510000  0.098090631 
 2520000  0.088862778 
 2530000  0.097217049 
 2540000   0.10472378 
 2550000  0.090921839 
 2560000  0.095570948 
 2570000   0.10120321 
 2580000  0.095619952 
 2590000   0.10452965 
 2600000   0.10214572 
 2610000   0.10827722 
 2620000  0.098425318 
 2630000   0.11186868 
 2640000   0.10880071 
 2650000  0.095763641 
 2660000    0.1036169 
 2670000  0.094958032 
 2680000   0.10988941 
 2690000   0.09852649 
 2700000  0.098272664 
 2710000   0.10957325 
 2720000   0.10030915 
 2730000  0.098432532 
 2740000  0.097871156 
 2750000  0.099481708 
 2760000   0.10642354 
 2770000   0.10133466 
 2780000  0.096815622 
 2790000    0.1027716 
 2800000   0.11880899 
 2810000   0.10027793 
 2820000    0.1056691 
 2830000  0.092299999 
 2840000    0.1093356 
 2850000  0.094184454 
 2860000   0.10398792 
 2870000  0.097018087 
 2880000  0.093872908 
 2890000  0.097283545 
 2900000   0.10833641 
 2910000  0.098352517 
 2920000   0.10817659 
 2930000   0.10608462 
 2940000   0.10037124 
 2950000   0.10883459 
 2960000  0.099442916 
 2970000  0.095114822 
 2980000   0.11288065 
 2990000   0.10039281 
 3000000   0.10252831 
 3010000   0.10551797 
 3020000  0.091628615 
 3030000   0.10705464 
 3040000  0.091479852 
 3050000  0.092727746 
 3060000  0.089356192 
 3070000  0.099841902 
 3080000  0.098573023 
 3090000   0.10284347 
 3100000   0.11227851 
 3110000   0.10059208 
 3120000  0.099362552 
 3130000  0.096306766 
 3140000  0.098868031 
 3150000   0.10018559 
 3160000    0.1062604 
 3170000   0.10678146 
 3180000  0.099493603 
 3190000  0.097493084 
 3200000  0.098753633 
 3210000   0.10611531 
 3220000  0.088880057 
 3230000   0.10495983 
 3240000   0.10171098 
 3250000   0.10216939 
 3260000  0.096934291 
 3270000   0.10479075 
 3280000   0.10040802 
 3290000  0.091655069 
 3300000  0.094929833 
 3310000   0.11420775 
 3320000   0.10366028 
 3330000   0.11047287 
 3340000   0.10646246 
 3350000   0.11325858 
 3360000  0.095993283 
 3370000    0.1035443 
 3380000  0.096016854 
 3390000  0.098417805 
 3400000   0.10040841 
 3410000   0.10168453 
 3420000   0.10121723 
 3430000   0.10402024 
 3440000   0.10716143 
 3450000  0.094033778 
 3460000    0.1034505 
 3470000  0.097821428 
 3480000   0.10087014 
 3490000  0.099339527 
 3500000    0.1005997 
 3510000   0.10564075 
 3520000  0.095088062 
 3530000    0.1029442 
 3540000  0.096135134 
 3550000  0.097969873 
 3560000  0.098189928 
 3570000   0.11618054 
 3580000   0.10369511 
 3590000  0.097037038 
 3600000   0.11042332 
 3610000   0.10015794 
 3620000   0.09377654 
 3630000   0.09866415 
 3640000   0.10968723 
 3650000   0.10491392 
 3660000  0.099361988 
 3670000   0.10317554 
 3680000   0.10603069 
 3690000  0.096519073 
 3700000   0.10232482 
 3710000  0.093499899 
 3720000  0.092654971 
 3730000  0.096151666 
 3740000   0.10549695 
 3750000   0.10422212 
 3760000   0.10191797 
 3770000   0.10244872 
 3780000  0.096329807 
 3790000   0.10103821 
 3800000  0.083419234 
 3810000  0.096799364 
 3820000   0.10691685 
 3830000   0.10862175 
 3840000   0.10737094 
 3850000  0.093984876 
 3860000    0.1035514 
 3870000   0.09654826 
 3880000   0.10031997 
 3890000  0.089544914 
 3900000   0.10861392 
 3910000   0.10473007 
 3920000   0.10464606 
 3930000  0.095071172 
 3940000   0.10769157 
 3950000    0.1006635 
 3960000  0.097341975 
 3970000   0.10958152 
 3980000   0.10072602 
 3990000   0.11603984 
 4000000  0.083765024 
 4010000  0.098463861 
 4020000  0.098583265 
 4030000     0.104318 
 4040000  0.095114529 
 4050000   0.09983425 
 4060000  0.098705597 
 4070000   0.09327756 
 4080000   0.10500906 
 4090000   0.10200427 
 4100000  0.088981787 
 4110000  0.086665271 
 4120000   0.10020458 
 4130000  0.093874149 
 4140000   0.10391315 
 4150000  0.097113134 
 4160000  0.094853147 
 4170000    0.1005173 
 4180000   0.10157888 
 4190000   0.10813269 
 4200000   0.10923249 
 4210000  0.090613559 
 4220000  0.092150289 
 4230000   0.10438211 
 4240000  0.097058174 
 4250000  0.098161967 
 4260000   0.09958618 
 4270000  0.099218504 
 4280000  0.096138804 
 4290000   0.10988086 
 4300000   0.10060779 
 4310000  0.087698272 
 4320000   0.10320947 
 4330000  0.096651997 
 4340000  0.093501446 
 4350000   0.10471407 
 4360000  0.092061244 
 4370000  0.095291259 
 4380000   0.10815082 
 4390000   0.11097085 
 4400000  0.090434059 
 4410000   0.10100726 
 4420000  0.091740307 
 4430000   0.10395231 
 4440000   0.10125502 
 4450000   0.10231071 
 4460000   0.10851168 
 4470000   0.10263469 
 4480000  0.095089321 
 4490000  0.094331809 
 4500000   0.10335579 
 4510000   0.10273577 
 4520000   0.10723381 
 4530000   0.10520104 
 4540000   0.10232078 
 4550000   0.10665873 
 4560000  0.088043974 
 4570000   0.10548855 
 4580000   0.11017273 
 4590000    0.1037382 
 4600000   0.10518919 
 4610000  0.099288906 
 4620000   0.10167567 
 4630000  0.096714454 
 4640000  0.099455818 
 4650000  0.089453708 
 4660000  0.089714444 
 4670000   0.10031462 
 4680000   0.10808908 
 4690000  0.097495359 
 4700000   0.10328413 
 4710000   0.10944748 
 4720000   0.10945423 
 4730000  0.099055392 
 4740000   0.10162951 
 4750000  0.091169482 
 4760000  0.084766051 
 4770000   0.10071383 
 4780000  0.096797697 
 4790000   0.11102446 
 4800000   0.09697766 
 4810000   0.09886583 
 4820000  0.096899134 
 4830000  0.092613615 
 4840000   0.10046068 
 4850000  0.091237087 
 4860000  0.088990194 
 4870000  0.098193726 
 4880000   0.10598729 
 4890000  0.099185307 
 4900000   0.10062077 
 4910000  0.097194222 
 4920000  0.098993188 
 4930000  0.095211765 
 4940000   0.10200805 
 4950000  0.099475207 
 4960000  0.097181297 
 4970000   0.10202549 
 4980000    0.1021522 
 4990000   0.09382317 
 5000000   0.09665078 
 5010000   0.10231737 
 5020000   0.10384689 
 5030000  0.093807621 
 5040000   0.10744165 
 5050000   0.10507657 
 5060000  0.096096884 
 5070000  0.087406016 
 5080000  0.099791222 
 5090000  0.099147437 
 5100000  0.095303654 
 5110000   0.08957059 
 5120000  0.086955917 
 5130000   0.10666683 
 5140000   0.10337159 
 5150000   0.11845225 
 5160000  0.093194165 
 5170000   0.10699263 
 5180000   0.10217596 
 5190000  0.093174435 
 5200000   0.10333343 
 5210000  0.096294429 
 5220000   0.10260487 
 5230000  0.099182142 
 5240000  0.097386385 
 5250000  0.099220309 
 5260000   0.10316171 
 5270000  0.099913556 
 5280000   0.10258904 
 5290000   0.10100573 
 5300000   0.10213918 
 5310000    0.1002999 
 5320000   0.11023433 
 5330000   0.09904854 
 5340000  0.097950658 
 5350000    0.1026511 
 5360000   0.10129045 
 5370000   0.10024987 
 5380000   0.10132963 
 5390000   0.10936268 
 5400000  0.096174744 
 5410000   0.10018078 
 5420000   0.10007719 
 5430000  0.094135638 
 5440000   0.10369665 
 5450000  0.097913083 
 5460000   0.10410547 
 5470000   0.10451299 
 5480000  0.094672997 
 5490000   0.10251633 
 5500000   0.10387857 
 5510000   0.10971417 
 5520000   0.10666509 
 5530000   0.09622394 
 5540000   0.10248746 
 5550000   0.10740037 
 5560000   0.10312325 
 5570000   0.10895738 
 5580000   0.10337789 
 5590000   0.10350684 
 5600000   0.10466634 
 5610000   0.10244257 
 5620000   0.10882183 
 5630000   0.10727643 
 5640000   0.10251279 
 5650000  0.094841309 
 5660000    0.1065619 
 5670000  0.099250039 
 5680000   0.11513326 
 5690000  0.097962669 
 5700000   0.10371874 
 5710000   0.10318622 
 5720000  0.092174172 
 5730000   0.10207901 
 5740000  0.088236622 
 5750000   0.11027199 
 5760000   0.10501441 
 5770000  0.092186835 
 5780000  0.093030936 
 5790000   0.10135874 
 5800000  0.099764731 
 5810000  0.090753039 
 5820000  0.093123302 
 5830000   0.10301828 
 5840000   0.10816293 
 5850000  0.086199007 
 5860000  0.093050571 
 5870000  0.096446802 
 5880000   0.10330015 
 5890000  0.099734186 
 5900000  0.095629946 
 5910000    0.1019373 
 5920000  0.094128423 
 5930000   0.11034946 
 5940000   0.10433277 
 5950000   0.10384954 
 5960000  0.099693607 
 5970000   0.10245251 
 5980000    0.1008993 
 5990000  0.086709532 
 6000000   0.10255986 
 6010000   0.10355809 
 6020000   0.10115749 
 6030000   0.10443609 
 6040000   0.10099065 
 6050000   0.10316192 
 6060000  0.090369271 
 6070000   0.10153938 
 6080000  0.099731336 
 6090000   0.10216292 
 6100000    0.1001338 
 6110000   0.10082892 
 6120000  0.094169216 
 6130000  0.099072002 
 6140000  0.093398748 
 6150000  0.091345929 
 6160000   0.10296721 
 6170000   0.10585041 
 6180000  0.090419651 
 6190000   0.10004078 
 6200000  0.099742902 
 6210000   0.09862713 
 6220000  0.095584028 
 6230000   0.10006337 
 6240000  0.098162936 
 6250000   0.10563245 
 6260000  0.087993447 
 6270000  0.092574474 
 6280000   0.10683507 
 6290000   0.10574127 
 6300000   0.10437346 
 6310000  0.099776906 
 6320000   0.09680539 
 6330000  0.098783292 
 6340000  0.094248025 
 6350000   0.10241849 
 6360000  0.092269786 
 6370000  0.092818424 
 6380000  0.094115153 
 6390000   0.10915217 
 6400000   0.10005462 
 6410000   0.10450715 
 6420000   0.09772623 
 6430000   0.10681047 
 6440000    0.1083331 
 6450000   0.10468875 
 6460000  0.095100997 
 6470000    0.1049496 
 6480000  0.098863413 
 6490000  0.099143698 
 6500000   0.09889038 
 6510000   0.10274451 
 6520000  0.099626504 
 6530000   0.10444362 
 6540000  0.098747719 
 6550000   0.10809406 
 6560000   0.11218934 
 6570000   0.09516504 
 6580000  0.097584064 
 6590000  0.093627189 
 6600000   0.10200456 
 6610000  0.089562933 
 6620000  0.092517902 
 6630000   0.10779401 
 6640000  0.089635569 
 6650000  0.095121382 
 6660000   0.10472248 
 6670000  0.098314184 
 6680000   0.10472055 
 6690000  0.097666858 
 6700000   0.09520618 
 6710000   0.10270195 
 6720000  0.097614772 
 6730000  0.098585765 
 6740000   0.10320205 
 6750000    0.1088041 
 6760000  0.096443054 
 6770000   0.09804391 
 6780000  0.089349107 
 6790000   0.10551618 
 6800000  0.093776796 
 6810000  0.094505885 
 6820000   0.10837166 
 6830000  0.094233066 
 6840000  0.095901641 
 6850000   0.10535949 
 6860000  0.094806303 
 6870000   0.10235555 
 6880000   0.10786226 
 6890000  0.096391464 
 6900000   0.10272036 
 6910000   0.10230683 
 6920000   0.10610245 
 6930000   0.10159512 
 6940000    0.1089102 
 6950000  0.097840074 
 6960000   0.10033641 
 6970000   0.10285809 
 6980000   0.10697606 
 6990000  0.095431512 
 7000000   0.10290316 
 7010000  0.097227067 
 7020000   0.09868901 
 7030000  0.095895867 
 7040000  0.091163831 
 7050000  0.096097715 
 7060000   0.10731203 
 7070000   0.10494839 
 7080000   0.10422258 
 7090000   0.10736709 
 7100000   0.10232802 
 7110000  0.089392627 
 7120000  0.095500959 
 7130000  0.094306958 
 7140000  0.098677726 
 7150000   0.10299184 
 7160000   0.10685433 
 7170000  0.093640679 
 7180000   0.10049455 
 7190000   0.10080308 
 7200000  0.097029801 
 7210000  0.098486957 
 7220000   0.11203977 
 7230000   0.10579018 
 7240000   0.10869755 
 7250000   0.10596349 
 7260000   0.10400891 
 7270000   0.11164637 
 7280000    0.1016411 
 7290000   0.10209362 
 7300000   0.10532106 
 7310000  0.093420296 
 7320000  0.092959456 
 7330000   0.10358514 
 7340000  0.098722541 
 7350000  0.099556112 
 7360000   0.10521617 
 7370000   0.10344982 
 7380000  0.098803968 
 7390000  0.095286776 
 7400000  0.091905201 
 7410000  0.097948426 
 7420000   0.10453076 
 7430000  0.090000175 
 7440000  0.097368501 
 7450000   0.09608518 
 7460000  0.095454061 
 7470000  0.093568391 
 7480000  0.084092583 
 7490000  0.093750927 
 7500000  0.091432085 
 7510000   0.10111851 
 7520000  0.096793616 
 7530000    0.1016242 
 7540000   0.10330292 
 7550000  0.094495664 
 7560000    0.1045968 
 7570000   0.10261857 
 7580000   0.11219488 
 7590000   0.10747336 
 7600000   0.10508584 
 7610000  0.093133739 
 7620000   0.10855839 
 7630000    0.0953148 
 7640000   0.10488882 
 7650000   0.10734009 
 7660000   0.10458613 
 7670000   0.10205779 
 7680000   0.10546332 
 7690000   0.10240974 
 7700000   0.10159763 
 7710000  0.099213137 
 7720000   0.10976323 
 7730000   0.10864288 
 7740000  0.094625606 
 7750000   0.11146364 
 7760000  0.093015778 
 7770000  0.099594321 
 7780000  0.098859607 
 7790000  0.095118653 
 7800000   0.10288349 
 7810000  0.098912692 
 7820000  0.099202539 
 7830000  0.098005906 
 7840000   0.10349853 
 7850000   0.10612661 
 7860000   0.10445443 
 7870000   0.11095159 
 7880000   0.10481427 
 7890000  0.099841337 
 7900000   0.10160331 
 7910000  0.094223262 
 7920000  0.093407216 
 7930000  0.097262782 
 7940000  0.095347569 
 7950000  0.095954576 
 7960000   0.10827768 
 7970000   0.10041973 
 7980000  0.099576417 
 7990000   0.11136323 
 8000000  0.089776359 
 8010000  0.099576833 
 8020000   0.10789905 
 8030000   0.10445813 
 8040000   0.10092499 
 8050000  0.098345757 
 8060000   0.10274558 
 8070000  0.094875249 
 8080000  0.091487367 
 8090000  0.089997941 
 8100000   0.10077271 
 8110000  0.095542218 
 8120000  0.090365636 
 8130000   0.10194456 
 8140000   0.10325744 
 8150000   0.10052672 
 8160000   0.10128709 
 8170000  0.095280984 
 8180000   0.10284344 
 8190000  0.090886646 
 8200000   0.10376936 
 8210000  0.095398337 
 8220000    0.1001168 
 8230000   0.10600493 
 8240000  0.099755265 
 8250000   0.11358845 
 8260000  0.097186002 
 8270000  0.095732346 
 8280000  0.090005774 
 8290000  0.099331607 
 8300000   0.10247609 
 8310000   0.10084086 
 8320000   0.10243735 
 8330000   0.10272258 
 8340000   0.10540756 
 8350000    0.1065232 
 8360000  0.094328174 
 8370000  0.091134879 
 8380000  0.099425689 
 8390000  0.098682261 
 8400000  0.098863039 
 8410000   0.10524845 
 8420000   0.10935209 
 8430000    0.1051832 
 8440000   0.10529064 
 8450000   0.09545015 
 8460000  0.095259496 
 8470000   0.10056096 
 8480000   0.09666096 
 8490000  0.089682796 
 8500000   0.11356277 
 8510000    0.1053259 
 8520000   0.10775072 
 8530000  0.098377757 
 8540000  0.095642898 
 8550000  0.097514836 
 8560000   0.09141584 
 8570000   0.10116458 
 8580000  0.095927281 
 8590000   0.10129212 
 8600000  0.098195173 
 8610000  0.088459701 
 8620000   0.10421576 
 8630000   0.10356106 
 8640000   0.10781285 
 8650000    0.1034744 
 8660000  0.095299701 
 8670000    0.1025195 
 8680000   0.10860206 
 8690000   0.10153405 
 8700000   0.10212899 
 8710000    0.1007802 
 8720000  0.099716846 
 8730000   0.10265945 
 8740000  0.097600058 
 8750000    0.1056775 
 8760000  0.094490586 
 8770000  0.091086498 
 8780000  0.091508281 
 8790000  0.098102461 
 8800000   0.10120158 
 8810000   0.11330403 
 8820000  0.099013479 
 8830000   0.10092601 
 8840000  0.097837382 
 8850000   0.10240337 
 8860000  0.095938843 
 8870000  0.092484244 
 8880000   0.09418937 
 8890000   0.10473035 
 8900000   0.10467029 
 8910000   0.10585728 
 8920000   0.11130578 
 8930000   0.10007991 
 8940000  0.090121788 
 8950000  0.093294654 
 8960000    0.0945766 
 8970000  0.096195088 
 8980000   0.10991116 
 8990000  0.096407837 
 9000000   0.10029869 
 9010000   0.10735748 
 9020000  0.091280657 
 9030000  0.098816971 
 9040000   0.10200157 
 9050000   0.10195643 
 9060000  0.096068394 
 9070000  0.095126908 
 9080000  0.095271138 
 9090000  0.091184642 
 9100000   0.09383794 
 9110000   0.10982053 
 9120000  0.099681577 
 9130000    0.1049646 
 9140000   0.10897462 
 9150000  0.096265726 
 9160000   0.10015154 
 9170000   0.10055706 
 9180000   0.10206514 
 9190000    0.0969124 
 9200000  0.096712313 
 9210000   0.10069123 
 9220000   0.10141863 
 9230000   0.11097035 
 9240000   0.10030464 
 9250000  0.095122424 
 9260000  0.091789543 
 9270000   0.10442485 
 9280000  0.091947281 
 9290000  0.093475293 
 9300000   0.10100631 
 9310000  0.099919476 
 9320000   0.10223063 
 9330000  0.099994956 
 9340000    0.1013848 
 9350000   0.09656647 
 9360000   0.10725545 
 9370000  0.096763802 
 9380000   0.10004609 
 9390000   0.10598443 
 9400000   0.09449063 
 9410000   0.10146903 
 9420000  0.097683676 
 9430000   0.10158374 
 9440000  0.094400802 
 9450000  0.095754041 
 9460000   0.10015665 
 9470000  0.091531155 
 9480000  0.096140924 
 9490000    0.1126569 
 9500000  0.099033206 
 9510000   0.11080376 
 9520000   0.11178857 
 9530000   0.10390302 
 9540000   0.10537701 
 9550000   0.09044471 
 9560000   0.11554842 
 9570000   0.10225441 
 9580000   0.11218283 
 9590000  0.099457066 
 9600000  0.098505366 
 9610000  0.095054481 
 9620000   0.10353052 
 9630000  0.098227246 
 9640000   0.10701286 
 9650000  0.093645673 
 9660000  0.097438096 
 9670000  0.099402245 
 9680000   0.09628337 
 9690000    0.0980163 
 9700000   0.10874446 
 9710000  0.083729943 
 9720000  0.094933649 
 9730000   0.10495913 
 9740000   0.10594519 
 9750000  0.097094303 
 9760000    0.1039577 
 9770000   0.10729929 
 9780000  0.097548158 
 9790000    0.1051736 
 9800000   0.10674541 
 9810000  0.094807406 
 9820000  0.097470546 
 9830000  0.094766536 
 9840000  0.092235777 
 9850000    0.1071928 
 9860000   0.10411913 
 9870000   0.10254397 
 9880000   0.10849671 
 9890000  0.093585926 
 9900000   0.10847927 
 9910000   0.10781406 
 9920000  0.093554268 
 9930000  0.097539191 
 9940000   0.09583489 
 9950000   0.10472473 
 9960000   0.10393872 
 9970000  0.095456856 
 9980000  0.091882688 
 9990000  0.095738726 
10000000  0.093168254 
10010000  0.096262131 
10020000   0.10450856 
10030000  0.096082172 
10040000   0.10502516 
10050000  0.099445048 
10060000  0.098423741 
10070000   0.10528218 
10080000  0.099430625 
10090000   0.10490672 
10100000   0.10199094 
10110000   0.10749824 
10120000   0.10115726 
10130000   0.09692406 
10140000  0.099862033 
10150000   0.10724565 
10160000  0.097722674 
10170000  0.099952269 
10180000  0.090731609 
10190000  0.090702682 
10200000  0.097742856 
10210000  0.095424114 
10220000   0.10780091 
10230000   0.10800409 
10240000  0.097216723 
10250000   0.10700504 
10260000  0.093858843 
10270000   0.10834085 
10280000   0.10183531 
10290000  0.097188428 
10300000  0.093584902 
10310000  0.094239131 
10320000   0.11331778 
10330000  0.094864505 
10340000    0.1128411 
10350000   0.10147782 
10360000   0.11111072 
10370000   0.10103125 
10380000  0.093815836 
10390000  0.089310483 
10400000  0.094651176 
10410000   0.10146165 
10420000   0.10835676 
10430000   0.11192542 
10440000  0.097636155 
10450000   0.10221878 
10460000  0.099645478 
10470000   0.10883452 
10480000  0.086268763 
10490000     0.106167 
10500000   0.10077537 
10510000   0.10185452 
10520000   0.10951272 
10530000   0.10034993 
10540000  0.098469024 
10550000  0.097185094 
10560000  0.094616711 
10570000   0.10442549 
10580000   0.10782765 
10590000   0.11128276 
10600000   0.11205943 
10610000  0.095319474 
10620000   0.10634331 
10630000   0.10490616 
10640000   0.10200203 
10650000   0.10009221 
10660000   0.10777296 
10670000  0.094128048 
10680000  0.095510927 
10690000   0.10258168 
10700000   0.11119715 
10710000   0.10085031 
10720000    0.1008055 
10730000  0.091490862 
10740000   0.10527147 
10750000   0.10207782 
10760000   0.10851522 
10770000   0.10739353 
10780000  0.097543809 
10790000   0.10531727 
10800000   0.10805112 
10810000   0.10493304 
10820000    0.1054295 
10830000   0.10102666 
10840000    0.1100365 
10850000   0.10709928 
10860000   0.10006525 
10870000   0.10085795 
10880000   0.10407951 
10890000   0.11289272 
10900000  0.096277741 
10910000  0.092738967 
10920000   0.11278032 
10930000   0.10675948 
10940000    0.1022604 
10950000   0.10430234 
10960000  0.099031984 
10970000  0.099417573 
10980000  0.095363805 
10990000  0.096132063 
11000000   0.10562843 
11010000   0.10232719 
11020000  0.091740436 
11030000    0.1045877 
11040000   0.10990418 
11050000   0.10251383 
11060000    0.1000073 
11070000    0.1001432 
11080000  0.098807703 
11090000  0.097916267 
11100000   0.10494612 
11110000   0.10143889 
11120000  0.094921668 
11130000   0.10068889 
11140000  0.091887975 
11150000   0.10432372 
11160000  0.099800951 
11170000  0.089156776 
11180000  0.092104464 
11190000   0.10017919 
11200000   0.10237728 
11210000  0.097689464 
11220000  0.091150416 
11230000  0.094862603 
11240000  0.085337303 
11250000   0.10155411 
11260000   0.10962306 
11270000  0.095685021 
11280000  0.092926276 
11290000   0.10635306 
11300000   0.10906769 
11310000  0.095871239 
11320000  0.096970873 
11330000   0.10768275 
11340000   0.10290613 
11350000  0.099734734 
11360000   0.10904952 
11370000    0.1002184 
11380000   0.10953635 
11390000   0.10109491 
11400000   0.10994118 
11410000   0.10156511 
11420000   0.10635141 
11430000   0.10361262 
11440000   0.10191156 
11450000   0.10354747 
11460000  0.092998608 
11470000  0.094602247 
11480000  0.095982927 
11490000  0.080693067 
11500000   0.09962583 
11510000   0.11232933 
11520000   0.10193353 
11530000  0.091087562 
11540000    0.1001226 
11550000   0.10216849 
11560000   0.10272105 
11570000  0.096012502 
11580000  0.097627613 
11590000  0.096495126 
11600000  0.087635854 
11610000   0.10319547 
11620000   0.10336124 
11630000  0.093461672 
11640000   0.09676741 
11650000  0.097731921 
11660000  0.097847014 
11670000  0.092020384 
11680000  0.099372353 
11690000  0.098911864 
11700000   0.10284212 
11710000  0.096973122 
11720000  0.096610597 
11730000   0.10312605 
11740000   0.10356958 
11750000  0.099058186 
11760000   0.10108975 
11770000  0.097999804 
11780000  0.095996816 
11790000   0.11469634 
11800000  0.090342856 
11810000  0.089545803 
11820000  0.096235332 
11830000   0.10691706 
11840000  0.098830089 
11850000   0.10115437 
11860000   0.10840038 
11870000  0.089843665 
11880000  0.090798123 
11890000  0.096519554 
11900000   0.10611225 
11910000  0.090719929 
11920000  0.093187879 
11930000   0.10114279 
11940000   0.10724093 
11950000  0.098686683 
11960000  0.089042701 
11970000   0.10207205 
11980000    0.0955337 
11990000   0.09677218 
12000000  0.097949294 
12010000   0.09894201 
12020000   0.10347591 
12030000  0.099918675 
12040000    0.1116456 
12050000   0.10200223 
12060000   0.10111255 
12070000  0.091666809 
12080000  0.094913891 
12090000   0.10105303 
12100000  0.093045524 
12110000  0.095024019 
12120000   0.10061908 
12130000   0.11204285 
12140000  0.095508258 
12150000  0.097004313 
12160000   0.10904809 
12170000  0.096691776 
12180000  0.091742353 
12190000  0.098484655 
12200000  0.095665467 
12210000   0.10839569 
12220000  0.095802183 
12230000   0.09983166 
12240000  0.090295406 
12250000   0.10000138 
12260000  0.091451621 
12270000  0.091322247 
12280000   0.10461816 
12290000    0.1043308 
12300000  0.088421098 
12310000  0.089156245 
12320000   0.10037473 
12330000   0.10702962 
12340000   0.10387729 
12350000   0.11452441 
12360000   0.10355447 
12370000  0.091619501 
12380000    0.1006807 
12390000   0.10151882 
12400000  0.095647757 
12410000  0.094368007 
12420000  0.098904497 
12430000   0.10767174 
12440000  0.099281326 
12450000   0.10649902 
12460000  0.097987936 
12470000  0.098858145 
12480000   0.10543053 
12490000   0.10044101 
12500000   0.10446818 
12510000  0.094816563 
12520000  0.099443275 
12530000   0.11176348 
12540000   0.10618768 
12550000  0.097535657 
12560000  0.093354702 
12570000   0.10161608 
12580000   0.11511387 
12590000   0.09541869 
12600000   0.10168481 
12610000   0.10308272 
12620000   0.10665738 
12630000     0.107699 
12640000   0.10155846 
12650000   0.10652191 
12660000    0.1073142 
12670000   0.10352919 
12680000  0.094313707 
12690000   0.10079868 
12700000   0.10867441 
12710000  0.093953577 
12720000  0.096172641 
12730000  0.096349255 
12740000   0.11204086 
12750000  0.094463006 
12760000   0.10190937 
12770000   0.09319324 
12780000  0.095474021 
12790000  0.095522841 
12800000   0.10752082 
12810000   0.10758657 
12820000   0.10413965 
12830000   0.10272131 
12840000  0.096041094 
12850000   0.10229432 
12860000   0.11367212 
12870000   0.10878842 
12880000   0.10428775 
12890000  0.096728598 
12900000   0.10085873 
12910000  0.094969647 
12920000     0.102238 
12930000   0.10072043 
12940000  0.099759724 
12950000   0.10654173 
12960000  0.097310192 
12970000  0.098041581 
12980000   0.10670129 
12990000   0.10413162 
13000000  0.095622486 
13010000  0.096385967 
13020000   0.10061203 
13030000   0.09518087 
13040000   0.10256709 
13050000  0.099740198 
13060000   0.10031827 
13070000   0.09537589 
13080000   0.10154341 
13090000   0.10271735 
13100000   0.09725842 
13110000   0.10942703 
13120000   0.10722166 
13130000  0.087898373 
13140000  0.097133789 
13150000  0.095087392 
13160000   0.10994764 
13170000   0.10663387 
13180000   0.10000422 
13190000   0.10376993 
13200000   0.10840291 
13210000   0.10318367 
13220000   0.10129012 
13230000   0.10331568 
13240000   0.11362284 
13250000  0.099853936 
13260000  0.098723854 
13270000   0.10056011 
13280000   0.10078032 
13290000  0.099842822 
13300000  0.094797703 
13310000  0.089282873 
13320000   0.10084404 
13330000   0.10431865 
13340000   0.09792101 
13350000  0.096701423 
13360000   0.10852334 
13370000   0.11000331 
13380000  0.098332295 
13390000   0.10790845 
13400000  0.086491453 
13410000  0.098665054 
13420000   0.10101636 
13430000   0.10482571 
13440000   0.10923897 
13450000  0.097091848 
13460000    0.0957951 
13470000   0.10687344 
13480000   0.10309819 
13490000   0.10436387 
13500000   0.10086049 
13510000   0.10256912 
13520000  0.096132407 
13530000  0.095853986 
13540000   0.10043296 
13550000   0.11824099 
13560000   0.10024005 
13570000  0.099798836 
13580000   0.10110106 
13590000  0.095015067 
13600000   0.10500371 
13610000  0.094550005 
13620000  0.097766852 
13630000  0.098505257 
13640000  0.096811821 
13650000  0.096169471 
13660000   0.10548738 
13670000  0.098507033 
13680000    0.1128492 
13690000   0.10548335 
13700000   0.10578058 
13710000   0.11330762 
13720000   0.10120705 
13730000  0.096313281 
13740000   0.10982886 
13750000  0.097017404 
13760000   0.10199575 
13770000   0.11516196 
13780000  0.090047352 
13790000  0.098264245 
13800000  0.097796019 
13810000  0.091628022 
13820000   0.10942761 
13830000   0.10086148 
13840000   0.10283837 
13850000   0.11143889 
13860000   0.10186888 
13870000  0.097432005 
13880000   0.10302397 
13890000   0.10197215 
13900000   0.11040011 
13910000   0.10166958 
13920000  0.097863737 
13930000  0.096907658 
13940000  0.095242955 
13950000   0.10594138 
13960000   0.10214028 
13970000  0.088812101 
13980000  0.094662247 
13990000   0.10767115 
14000000  0.097824209 
14010000  0.096075849 
14020000  0.099811268 
14030000  0.098827175 
14040000   0.10073795 
14050000  0.093591832 
14060000   0.10627648 
14070000   0.10458559 
14080000  0.099987739 
14090000   0.11036271 
14100000  0.098411922 
14110000   0.10103981 
14120000  0.096651905 
14130000   0.10364768 
14140000   0.10137508 
14150000   0.10321392 
14160000   0.09553719 
14170000  0.098143776 
14180000    0.1001213 
14190000   0.10058833 
14200000  0.098315702 
14210000    0.1045753 
14220000   0.10040282 
14230000  0.096634514 
14240000  0.096836583 
14250000   0.10692969 
14260000  0.099927601 
14270000  0.089869163 
14280000    0.1013489 
14290000   0.10106261 
14300000   0.10145269 
14310000  0.095306641 
14320000   0.10250456 
14330000  0.093389342 
14340000   0.10716068 
14350000  0.094072363 
14360000  0.085758875 
14370000  0.097359515 
14380000  0.096464822 
14390000  0.095640042 
14400000  0.082602872 
14410000  0.098231822 
14420000   0.10844473 
14430000   0.10166098 
14440000  0.089575996 
14450000     0.105636 
14460000  0.098291728 
14470000    0.1034481 
14480000    0.1035085 
14490000   0.11637818 
14500000  0.088378789 
14510000  0.097149039 
14520000  0.096683223 
14530000   0.10680491 
14540000  0.099746281 
14550000   0.10006727 
14560000    0.1010448 
14570000  0.095410877 
14580000  0.096431909 
14590000   0.11014087 
14600000    0.1001371 
14610000   0.10867353 
14620000   0.10191877 
14630000   0.10540345 
14640000   0.10125053 
14650000  0.094240207 
14660000  0.098367189 
14670000  0.097109237 
14680000  0.099226163 
14690000   0.10543807 
14700000   0.10132984 
14710000    0.1066166 
14720000  0.095055006 
14730000   0.10373518 
14740000   0.10424731 
14750000  0.094464234 
14760000    0.1077698 
14770000    0.1012901 
14780000  0.096013858 
14790000   0.10857631 
14800000   0.10964382 
14810000   0.10649719 
14820000    0.1148688 
14830000   0.10144377 
14840000  0.095391418 
14850000  0.097703415 
14860000   0.10262525 
14870000   0.10027193 
14880000   0.10422294 
14890000   0.10108659 
14900000  0.097439251 
14910000  0.099270719 
14920000   0.10122341 
14930000  0.095531087 
14940000   0.11969871 
14950000   0.10272102 
14960000   0.10366245 
14970000     0.093211 
14980000   0.10223955 
14990000  0.096576753 
15000000   0.10925143 
15010000  0.097004829 
15020000   0.10172227 
15030000   0.10679001 
15040000   0.11033275 
15050000   0.10749039 
15060000   0.10305872 
15070000  0.091424987 
15080000     0.101288 
15090000  0.098656418 
15100000   0.09756158 
15110000  0.097862615 
15120000  0.093817937 
15130000    0.1108556 
15140000  0.095485182 
15150000   0.10303424 
15160000  0.095275204 
15170000  0.093574264 
15180000   0.10352796 
15190000   0.10927044 
15200000   0.10251113 
15210000  0.097949437 
15220000  0.082305701 
15230000  0.097575394 
15240000   0.10005832 
15250000   0.10325116 
15260000  0.097483929 
15270000  0.098789103 
15280000  0.097808998 
15290000  0.098794486 
15300000   0.10112562 
15310000   0.10558903 
15320000  0.096041422 
15330000    0.1000942 
15340000  0.099957263 
15350000   0.10141201 
15360000   0.10483452 
15370000  0.089331506 
15380000   0.10484693 
15390000  0.097974513 
15400000   0.10397543 
15410000  0.099615422 
15420000   0.09650598 
15430000  0.097185889 
15440000  0.092175078 
15450000  0.097196348 
15460000   0.10147676 
15470000  0.094022664 
15480000   0.10104158 
15490000  0.096551315 
15500000  0.095572346 
15510000   0.10766713 
15520000   0.10306207 
15530000   0.10076803 
15540000  0.091235488 
15550000   0.10290856 
15560000  0.092690406 
15570000   0.10326219 
15580000     0.100632 
15590000  0.094664201 
15600000   0.10345705 
15610000   0.10081156 
15620000  0.098052309 
15630000   0.10761042 
15640000   0.10444198 
15650000   0.10099266 
15660000  0.098684934 
15670000   0.11200377 
15680000   0.10595399 
15690000   0.10387818 
15700000   0.10460113 
15710000  0.099681528 
15720000   0.10005216 
15730000  0.098448553 
15740000   0.10738002 
15750000  0.096510608 
15760000   0.10190815 
15770000   0.10463387 
15780000  0.097827031 
15790000  0.097430673 
15800000   0.10543377 
15810000  0.098078147 
15820000  0.090231237 
15830000   0.10699036 
15840000   0.10645609 
15850000  0.098425299 
15860000   0.10336261 
15870000   0.09905631 
15880000  0.096790695 
15890000   0.10220474 
15900000   0.10682812 
15910000  0.093399623 
15920000  0.090906966 
15930000   0.10704538 
15940000   0.10503517 
15950000  0.092248985 
15960000   0.10776464 
15970000   0.10174546 
15980000   0.10960502 
15990000  0.097120088 
16000000   0.10439687 
16010000  0.096600351 
16020000   0.10769725 
16030000   0.10977311 
16040000   0.08672423 
16050000   0.10529165 
16060000   0.10156965 
16070000   0.10953354 
16080000  0.094917349 
16090000   0.11599394 
16100000   0.10090249 
16110000   0.10098588 
16120000   0.10937202 
16130000   0.10245766 
16140000   0.10663926 
16150000   0.10070271 
16160000   0.10177989 
16170000   0.10281129 
16180000    0.1042854 
16190000   0.10655256 
16200000  0.094424814 
16210000   0.09845028 
16220000   0.10256768 
16230000  0.099728275 
16240000   0.10123058 
16250000   0.10493179 
16260000  0.099221804 
16270000  0.092953057 
16280000   0.10597035 
16290000    0.1058119 
16300000  0.092343543 
16310000   0.10601386 
16320000   0.10529399 
16330000   0.10477775 
16340000   0.10827437 
16350000  0.091903524 
16360000   0.09773988 
16370000   0.10549907 
16380000   0.10313278 
16390000   0.10714851 
16400000  0.098401539 
16410000  0.097900598 
16420000   0.10632171 
16430000   0.10054074 
16440000  0.095204013 
16450000   0.10208228 
16460000  0.099510296 
16470000  0.094303321 
16480000   0.10399872 
16490000  0.091459778 
16500000  0.098236372 
16510000   0.10152568 
16520000    0.1129664 
16530000  0.099939839 
16540000   0.10069748 
16550000  0.098059718 
16560000  0.096489426 
16570000   0.10189731 
16580000   0.10404201 
16590000  0.098994355 
16600000   0.10945054 
16610000   0.10328827 
16620000  0.097476426 
16630000   0.11224437 
16640000  0.097249885 
16650000   0.10547032 
16660000   0.10626326 
16670000    0.1007625 
16680000  0.093833852 
16690000   0.10386735 
16700000  0.096664566 
16710000   0.10320135 
16720000   0.10517492 
16730000   0.10384941 
16740000  0.087545361 
16750000   0.10434617 
16760000  0.099707515 
16770000  0.099460947 
16780000  0.092884939 
16790000   0.10933243 
16800000  0.095951051 
16810000   0.10608346 
16820000   0.09990874 
16830000  0.095659027 
16840000   0.10729947 
16850000   0.10167169 
16860000  0.095958143 
16870000  0.093590866 
16880000   0.10946531 
16890000   0.10153837 
16900000   0.11662845 
16910000  0.090519422 
16920000   0.10077391 
16930000  0.088977385 
16940000  0.095329191 
16950000  0.099833897 
16960000  0.099599021 
16970000  0.097990006 
16980000  0.094485039 
16990000   0.10170753 
17000000   0.10857166 
17010000  0.085032657 
17020000  0.092333604 
17030000  0.092649288 
17040000   0.11303793 
17050000   0.10022428 
17060000  0.097904335 
17070000  0.098316932 
17080000  0.099520623 
17090000   0.09653222 
17100000  0.095401161 
17110000   0.10286508 
17120000  0.093515043 
17130000  0.095309062 
17140000   0.10318268 
17150000   0.10437091 
17160000  0.090922109 
17170000    0.1087597 
17180000    0.1072003 
17190000   0.10208278 
17200000  0.099123021 
17210000   0.10514979 
17220000  0.097547992 
17230000   0.10298311 
17240000  0.087836348 
17250000  0.093434113 
17260000   0.10003929 
17270000  0.099771195 
17280000   0.10316519 
17290000  0.096057387 
17300000   0.10504288 
17310000  0.095536471 
17320000  0.098683672 
17330000   0.09465488 
17340000   0.10037272 
17350000  0.092935655 
17360000  0.099175728 
17370000   0.10256647 
17380000   0.10618496 
17390000    0.1067874 
17400000  0.097285623 
17410000  0.099069788 
17420000  0.090194627 
17430000   0.10670814 
17440000   0.09686781 
17450000  0.092743007 
17460000   0.10089399 
17470000   0.11233632 
17480000  0.093026375 
17490000  0.093104163 
17500000  0.092460355 
17510000   0.10297175 
17520000   0.10504217 
17530000  0.098454386 
17540000   0.10489453 
17550000  0.099697644 
17560000  0.092596772 
17570000   0.10332237 
17580000  0.096985737 
17590000   0.10773836 
17600000    0.1069317 
17610000  0.082900183 
17620000   0.10680418 
17630000  0.099085666 
17640000   0.10052664 
17650000  0.093083821 
17660000   0.10007955 
17670000   0.10181018 
17680000    0.1045569 
17690000  0.096647188 
17700000  0.095017604 
17710000   0.10374186 
17720000   0.10055095 
17730000  0.099553949 
17740000  0.092310268 
17750000  0.096013305 
17760000    0.1099147 
17770000  0.096737268 
17780000   0.11628112 
17790000   0.10411645 
17800000   0.10950298 
17810000   0.10552915 
17820000  0.098698107 
17830000   0.11304456 
17840000   0.10039668 
17850000  0.092432837 
17860000  0.094678811 
17870000  0.099855039 
17880000  0.090987812 
17890000  0.096768483 
17900000   0.10534924 
17910000   0.10060278 
17920000   0.10058856 
17930000   0.10372022 
17940000  0.098332914 
17950000   0.10757488 
17960000   0.10315848 
17970000  0.098391336 
17980000   0.10329209 
17990000   0.10032098 
18000000    0.1095411 
18010000  0.096184507 
18020000   0.10538103 
18030000   0.10450181 
18040000  0.093987878 
18050000   0.09907553 
18060000   0.10523367 
18070000   0.10041664 
18080000  0.099974907 
18090000   0.10522525 
18100000   0.10429296 
18110000  0.095503946 
18120000  0.094319351 
18130000   0.09995856 
18140000   0.10124657 
18150000   0.10767981 
18160000   0.10382842 
18170000   0.10062962 
18180000   0.10364295 
18190000   0.10680154 
18200000  0.097997411 
18210000   0.10326446 
18220000   0.10848453 
18230000   0.10724898 
18240000  0.091630688 
18250000  0.091290779 
18260000   0.10835275 
18270000  0.095028715 
18280000   0.10106338 
18290000  0.093357766 
18300000  0.097498984 
18310000   0.10521832 
18320000   0.10450466 
18330000   0.10428456 
18340000  0.095262837 
18350000  0.094717363 
18360000  0.096034521 
18370000  0.096391791 
18380000  0.098943401 
18390000  0.099255073 
18400000   0.10207455 
18410000   0.10669435 
18420000   0.10279138 
18430000   0.10573772 
18440000   0.11043694 
18450000   0.10385803 
18460000   0.10071006 
18470000  0.085127321 
18480000   0.10950864 
18490000   0.10610746 
18500000  0.088615641 
18510000  0.098582676 
18520000   0.10233649 
18530000   0.11190618 
18540000  0.091462995 
18550000  0.094184598 
18560000   0.11095457 
18570000  0.090444439 
18580000   0.10411526 
18590000   0.10688913 
18600000   0.10175088 
18610000   0.10617567 
18620000   0.10066527 
18630000  0.099534972 
18640000  0.099532568 
18650000   0.10111776 
18660000  0.093791634 
18670000  0.099998309 
18680000   0.10518106 
18690000    0.1043168 
18700000  0.097401783 
18710000  0.091181419 
18720000   0.10351281 
18730000   0.10669034 
18740000   0.10378413 
18750000  0.092615997 
18760000   0.11293989 
18770000   0.10056642 
18780000   0.10089748 
18790000   0.10198091 
18800000  0.091580489 
18810000   0.10040367 
18820000  0.093099497 
18830000  0.086272863 
18840000  0.099631846 
18850000  0.087512426 
18860000   0.11107522 
18870000   0.10459435 
18880000  0.094819611 
18890000   0.10756432 
18900000  0.095987002 
18910000  0.099839593 
18920000   0.10755702 
18930000   0.10321688 
18940000  0.091755698 
18950000  0.097619757 
18960000  0.094523846 
18970000   0.10298736 
18980000  0.095059958 
18990000  0.093771014 
19000000  0.094385512 
19010000   0.10177686 
19020000   0.09433739 
19030000   0.10066947 
19040000  0.092524633 
19050000  0.098705109 
19060000   0.10378525 
19070000   0.10214224 
19080000  0.091323365 
19090000   0.10373355 
19100000  0.093231933 
19110000   0.10420594 
19120000   0.10161965 
19130000   0.10280218 
19140000  0.093149087 
19150000   0.10624242 
19160000   0.10254223 
19170000  0.095999032 
19180000   0.09626758 
19190000   0.10174298 
19200000   0.11529145 
19210000  0.099180378 
19220000   0.10883244 
19230000  0.096024499 
19240000  0.088861476 
19250000   0.10592761 
19260000  0.090638352 
19270000   0.10178817 
19280000  0.099201942 
19290000   0.10939019 
19300000  0.098762976 
19310000  0.097378915 
19320000  0.088899786 
19330000   0.10618402 
19340000   0.10734732 
19350000   0.10459335 
19360000   0.10635556 
19370000  0.096986575 
19380000  0.088904947 
19390000   0.10127511 
19400000   0.09631378 
19410000  0.099544351 
19420000   0.10698334 
19430000   0.09597316 
19440000   0.10811372 
19450000   0.10337584 
19460000  0.095758664 
19470000   0.10129241 
19480000  0.088291315 
19490000  0.098068893 
19500000   0.10521031 
19510000  0.097866989 
19520000   0.10823892 
19530000   0.10617464 
19540000  0.099618365 
19550000  0.093285619 
19560000  0.094976053 
19570000  0.098964089 
19580000   0.10569885 
19590000   0.10558346 
19600000   0.10139884 
19610000   0.10858804 
19620000  0.095509849 
19630000  0.098431097 
19640000   0.10569596 
19650000   0.10631226 
19660000  0.094917675 
19670000  0.095440197 
19680000  0.098054272 
19690000  0.094993458 
19700000   0.10176432 
19710000  0.095640828 
19720000   0.10268377 
19730000  0.096978551 
19740000    0.1005477 
19750000  0.099302488 
19760000   0.11197134 
19770000  0.095624602 
19780000   0.10052195 
19790000   0.10017947 
19800000   0.10928282 
19810000  0.093784912 
19820000   0.10337089 
19830000  0.095515893 
19840000  0.098993171 
19850000   0.09864568 
19860000  0.098759041 
19870000   0.10150746 
19880000   0.10689359 
19890000  0.094416368 
19900000  0.099099416 
19910000    0.1060679 
19920000   0.10294239 
19930000  0.087244772 
19940000   0.10573216 
19950000   0.10082513 
19960000   0.09544784 
19970000   0.10140805 
19980000  0.093030926 
19990000  0.099789226 
20000000   0.09991575 
20010000   0.10015808 
20020000  0.096697739 
20030000   0.10930045 
20040000  0.095743275 
20050000   0.09596392 
20060000  0.097769723 
20070000   0.10475987 
20080000  0.099126289 
20090000    0.1025443 
20100000   0.10817199 
20110000   0.10897396 
20120000  0.088954309 
20130000  0.090208502 
20140000   0.10137344 
20150000  0.094901056 
20160000   0.10090011 
20170000   0.10196094 
20180000  0.099126608 
20190000   0.10935016 
20200000  0.091943556 
20210000   0.10470626 
20220000    0.1055674 
20230000   0.08780624 
20240000  0.098577147 
20250000   0.10066393 
20260000   0.10381536 
20270000  0.095891763 
20280000   0.10673083 
20290000   0.10399696 
20300000  0.096365497 
20310000  0.095888289 
20320000   0.10727867 
20330000  0.093341475 
20340000  0.092957937 
20350000  0.094835966 
20360000  0.097006545 
20370000  0.095358176 
20380000   0.10028385 
20390000   0.10556149 
20400000   0.10091709 
20410000   0.10154976 
20420000   0.10067802 
20430000    0.1027432 
20440000  0.098714939 
20450000  0.090294572 
20460000   0.10299817 
20470000  0.096716513 
20480000   0.10351107 
20490000   0.10032628 
20500000   0.10806889 
20510000     0.102879 
20520000   0.10671941 
20530000  0.097820385 
20540000  0.091036842 
20550000  0.091670616 
20560000  0.096297201 
20570000   0.09250881 
20580000   0.10026992 
20590000  0.089554311 
20600000   0.10307565 
20610000  0.095021273 
20620000   0.11170027 
20630000  0.097129692 
20640000   0.10021245 
20650000  0.097583792 
20660000   0.10306123 
20670000   0.10735956 
20680000  0.089056476 
20690000   0.09931984 
20700000  0.095101583 
20710000   0.10041697 
20720000   0.10233628 
20730000   0.10030919 
20740000  0.094784491 
20750000    0.1011239 
20760000   0.10243109 
20770000   0.10007757 
20780000   0.10264435 
20790000   0.10065248 
20800000   0.10397173 
20810000   0.10333111 
20820000  0.094774569 
20830000  0.094153909 
20840000   0.10924472 
20850000  0.086364608 
20860000   0.10425244 
20870000   0.10186104 
20880000  0.096610745 
20890000  0.098842271 
20900000    0.1090822 
20910000   0.10455876 
20920000  0.090387541 
20930000  0.098955262 
20940000   0.10726182 
20950000   0.10497994 
20960000   0.10567111 
20970000  0.097383072 
20980000   0.11134257 
20990000   0.11610698 
21000000  0.095642399 
21010000   0.10109338 
21020000   0.10214509 
21030000  0.092208525 
21040000   0.10680476 
21050000   0.10115518 
21060000   0.09640742 
21070000  0.093539191 
21080000  0.094439248 
21090000   0.10129772 
21100000    0.1022885 
21110000   0.10629211 
21120000  0.099305659 
21130000  0.099496896 
21140000  0.099551276 
21150000  0.099151022 
21160000  0.098312698 
21170000    0.1108817 
21180000  0.098107275 
21190000   0.10114356 
21200000  0.098924825 
21210000  0.084557279 
21220000   0.10245119 
21230000   0.10050042 
21240000   0.11150384 
21250000   0.11335702 
21260000   0.10611923 
21270000   0.10342243 
21280000     0.106776 
21290000  0.097615172 
21300000  0.092292032 
21310000   0.10842024 
21320000   0.10622665 
21330000  0.097985426 
21340000  0.090720844 
21350000   0.10029172 
21360000   0.10519596 
21370000  0.098581861 
21380000  0.096905216 
21390000   0.10696827 
21400000  0.093761815 
21410000   0.10366412 
21420000    0.1076613 
21430000  0.092768493 
21440000  0.095644429 
21450000   0.10287275 
21460000   0.09303504 
21470000   0.10197221 
21480000  0.097575796 
21490000    0.1048418 
21500000  0.096814291 
21510000  0.098858262 
21520000   0.10828308 
21530000  0.096748672 
21540000  0.099087412 
21550000  0.095418257 
21560000    0.1007769 
21570000    0.1034253 
21580000   0.10745277 
21590000   0.10477939 
21600000   0.09868125 
21610000   0.10019226 
21620000   0.10560765 
21630000  0.099675677 
21640000  0.099916458 
21650000  0.099587385 
21660000   0.10104881 
21670000  0.095074666 
21680000  0.091753171 
21690000   0.10722741 
21700000   0.10292196 
21710000   0.10813721 
21720000  0.099569291 
21730000  0.098113683 
21740000  0.099222703 
21750000   0.10337697 
21760000   0.09905305 
21770000   0.10264906 
21780000  0.099347929 
21790000   0.11132832 
21800000  0.099563162 
21810000   0.10583801 
21820000  0.094050735 
21830000  0.092191651 
21840000   0.10194422 
21850000   0.10523903 
21860000  0.099065798 
21870000   0.10289758 
21880000  0.095433035 
21890000   0.10133309 
21900000   0.10752183 
21910000   0.10129505 
21920000  0.093643215 
21930000   0.11159186 
21940000  0.092680854 
21950000  0.096278737 
21960000  0.088329013 
21970000   0.10164674 
21980000   0.10447942 
21990000   0.10124569 
22000000    0.1144298 
22010000   0.10173432 
22020000   0.11051483 
22030000   0.10657671 
22040000   0.10062807 
22050000   0.11536513 
22060000   0.10031421 
22070000  0.097534332 
22080000   0.10240278 
22090000    0.1067343 
22100000  0.097389891 
22110000   0.10589989 
22120000   0.10692859 
22130000   0.10478708 
22140000  0.099152223 
22150000  0.088339379 
22160000   0.10031178 
22170000  0.098971342 
22180000   0.11069379 
22190000  0.099250423 
22200000   0.10354697 
22210000   0.10213479 
22220000   0.10660151 
22230000   0.10076652 
22240000   0.10631558 
22250000  0.093805011 
22260000   0.09757662 
22270000   0.11587621 
22280000   0.10041644 
22290000  0.095036221 
22300000  0.098945522 
22310000   0.11173225 
22320000  0.097307976 
22330000   0.10492253 
22340000  0.099646943 
22350000  0.097316122 
22360000   0.10190354 
22370000  0.097811441 
22380000   0.10111004 
22390000  0.093477578 
22400000  0.093074553 
22410000   0.10165151 
22420000    0.1002897 
22430000   0.10070959 
22440000  0.098134388 
22450000  0.095509082 
22460000   0.10180677 
22470000  0.098590882 
22480000   0.10536396 
22490000  0.096571133 
22500000  0.093591346 
22510000   0.10163433 
22520000  0.094804772 
22530000   0.10235601 
22540000  0.094729821 
22550000  0.099588405 
22560000   0.10707824 
22570000   0.10455664 
22580000  0.097567173 
22590000   0.10221493 
22600000   0.10512494 
22610000  0.099150095 
22620000  0.093774802 
22630000  0.098991819 
22640000    0.1028222 
22650000   0.10700952 
22660000   0.10260527 
22670000  0.095429549 
22680000   0.10193214 
22690000   0.10670781 
22700000  0.095977152 
22710000   0.10642499 
22720000   0.10390259 
22730000      0.10921 
22740000   0.10660623 
22750000  0.096859461 
22760000   0.10197694 
22770000   0.10293826 
22780000  0.097500724 
22790000  0.097139961 
22800000  0.092225915 
22810000  0.092279287 
22820000   0.09027797 
22830000    0.1047616 
22840000  0.097347513 
22850000  0.094210918 
22860000   0.10084908 
22870000   0.10995654 
22880000  0.096509999 
22890000   0.10541137 
22900000  0.089738171 
22910000   0.10362811 
22920000   0.10039368 
22930000   0.10197121 
22940000   0.10343107 
22950000   0.11201706 
22960000   0.10039383 
22970000  0.094952605 
22980000   0.10111747 
22990000   0.10430827 
23000000   0.10174978 
23010000  0.099295403 
23020000   0.10459241 
23030000  0.090845569 
23040000  0.087999053 
23050000  0.098785736 
23060000   0.09261853 
23070000   0.10420371 
23080000   0.10244714 
23090000  0.095625395 
23100000   0.10498765 
23110000   0.09784735 
23120000   0.10397099 
23130000  0.093732595 
23140000   0.10023752 
23150000     0.106985 
23160000  0.096931284 
23170000  0.097443372 
23180000    0.1012305 
23190000   0.11114773 
23200000   0.11159442 
23210000  0.098897147 
23220000   0.10989924 
23230000    0.1014339 
23240000  0.098728735 
23250000  0.096876676 
23260000   0.10767516 
23270000   0.09755256 
23280000  0.093480598 
23290000    0.1050442 
23300000  0.093199926 
23310000   0.10536569 
23320000   0.10015147 
23330000  0.099672243 
23340000   0.10538727 
23350000  0.098572485 
23360000   0.10229757 
23370000  0.099682729 
23380000   0.10505076 
23390000  0.099056587 
23400000  0.098347031 
23410000   0.10049203 
23420000   0.09808605 
23430000   0.10256429 
23440000  0.093085507 
23450000   0.10300072 
23460000   0.10170215 
23470000   0.10819832 
23480000  0.093485038 
23490000  0.099785981 
23500000    0.1094228 
23510000   0.10195048 
23520000  0.092803102 
23530000   0.10718098 
23540000   0.10381995 
23550000   0.10213426 
23560000  0.095711336 
23570000  0.097232421 
23580000  0.097478858 
23590000  0.099492492 
23600000  0.095797864 
23610000  0.091507587 
23620000   0.10166563 
23630000     0.106841 
23640000   0.10497031 
23650000   0.10506979 
23660000   0.10087852 
23670000  0.097518923 
23680000   0.10836517 
23690000   0.10506027 
23700000   0.10002897 
23710000   0.10167207 
23720000  0.093835104 
23730000   0.10146679 
23740000   0.09706172 
23750000   0.10554346 
23760000   0.10244295 
23770000   0.10012166 
23780000  0.099330485 
23790000   0.10616096 
23800000  0.098859973 
23810000   0.10294538 
23820000   0.10768839 
23830000   0.10777962 
23840000   0.10058465 
23850000   0.10327056 
23860000   0.10392521 
23870000  0.098967961 
23880000   0.10522531 
23890000   0.10002229 
23900000   0.10656013 
23910000  0.095837273 
23920000   0.11173345 
23930000   0.10327406 
23940000  0.096054138 
23950000   0.10008828 
23960000  0.097456677 
23970000   0.10878395 
23980000   0.10559562 
23990000  0.098152977 
24000000   0.10435683 
24010000  0.097045153 
24020000  0.093312441 
24030000   0.10203474 
24040000   0.10136671 
24050000  0.094498595 
24060000   0.09522415 
24070000   0.10076095 
24080000  0.096408555 
24090000  0.082020968 
24100000  0.088493388 
24110000   0.10026982 
24120000  0.095765976 
24130000   0.09181724 
24140000   0.10014658 
24150000   0.09964149 
24160000   0.10677439 
24170000   0.09924862 
24180000  0.095499963 
24190000   0.10468106 
24200000  0.097513557 
24210000  0.095827417 
24220000   0.10776863 
24230000   0.10187848 
24240000   0.11064273 
24250000   0.09962501 
24260000   0.10279513 
24270000  0.097083161 
24280000  0.099012111 
24290000   0.10661351 
24300000   0.10341918 
24310000   0.10474864 
24320000  0.093950074 
24330000  0.092282782 
24340000    0.1031748 
24350000   0.10174496 
24360000   0.10598961 
24370000   0.10618134 
24380000   0.10042918 
24390000    0.1003977 
24400000  0.098423139 
24410000   0.11175487 
24420000  0.098579577 
24430000   0.10671667 
24440000   0.10570836 
24450000  0.099701233 
24460000   0.10912298 
24470000   0.10939489 
24480000     0.101192 
24490000  0.098098187 
24500000   0.10440861 
24510000   0.10144751 
24520000  0.098565288 
24530000   0.10641457 
24540000   0.11763809 
24550000   0.10044136 
24560000  0.098405398 
24570000   0.10274268 
24580000  0.095090035 
24590000  0.096377414 
24600000  0.092917778 
24610000  0.099720638 
24620000   0.10232821 
24630000   0.10315505 
24640000  0.092736817 
24650000   0.10513846 
24660000   0.10093223 
24670000  0.098158899 
24680000  0.098851546 
24690000  0.099602649 
24700000  0.096812429 
24710000  0.098458585 
24720000   0.11490263 
24730000  0.098001877 
24740000   0.11587467 
24750000   0.10292733 
24760000  0.091308876 
24770000   0.10337948 
24780000   0.10383908 
24790000  0.094874431 
24800000   0.11582138 
24810000   0.10411874 
24820000  0.093371478 
24830000   0.10645761 
24840000  0.096262679 
24850000   0.10018405 
24860000  0.094091001 
24870000  0.093824964 
24880000   0.10785498 
24890000   0.08792055 
24900000  0.090865904 
24910000   0.11305383 
24920000   0.11207387 
24930000  0.096840099 
24940000   0.10330044 
24950000   0.10373736 
24960000   0.10098344 
24970000   0.10143473 
24980000   0.09743757 
24990000   0.10715187 
25000000  0.085501261 
25010000  0.098035296 
25020000   0.10341548 
25030000    0.1064418 
25040000  0.097570032 
25050000  0.089134137 
25060000   0.10239732 
25070000  0.097016779 
25080000  0.094146123 
25090000  0.098765165 
25100000  0.095393573 
25110000  0.096046709 
25120000  0.095685141 
25130000  0.099746524 
25140000   0.10554349 
25150000  0.094973989 
25160000   0.10056276 
25170000   0.10478495 
25180000  0.092086311 
25190000  0.094774801 
25200000   0.10891038 
25210000  0.087127257 
25220000   0.10249056 
25230000   0.10358489 
25240000   0.10089643 
25250000   0.10064371 
25260000   0.10530922 
25270000   0.10739911 
25280000   0.10612266 
25290000  0.097752882 
25300000  0.096472516 
25310000   0.10140755 
25320000   0.10135951 
25330000  0.091382264 
25340000   0.10790062 
25350000   0.10542349 
25360000   0.10530369 
25370000  0.098021793 
25380000   0.10608709 
25390000   0.10226123 
25400000   0.10533651 
25410000  0.098743826 
25420000  0.096619632 
25430000   0.10300761 
25440000    0.1079701 
25450000  0.099504724 
25460000  0.099747104 
25470000   0.09334109 
25480000  0.097218366 
25490000   0.10280765 
25500000   0.09269529 
25510000   0.11272093 
25520000   0.10267414 
25530000    0.1037227 
25540000  0.094386994 
25550000   0.11138735 
25560000    0.1046731 
25570000  0.097898584 
25580000   0.10102353 
25590000  0.090265943 
25600000  0.095896811 
25610000   0.10332572 
25620000  0.096632718 
25630000  0.098212048 
25640000   0.10429094 
25650000  0.094614877 
25660000  0.099174474 
25670000   0.10548377 
25680000   0.10209392 
25690000  0.098292368 
25700000   0.10067318 
25710000   0.09662058 
25720000  0.097688718 
25730000   0.11381049 
25740000  0.093606989 
25750000  0.087145142 
25760000   0.10496404 
25770000  0.097497552 
25780000   0.10407607 
25790000   0.10369333 
25800000  0.092864174 
25810000  0.089637035 
25820000   0.10049965 
25830000  0.091098299 
25840000   0.10334004 
25850000   0.10432861 
25860000  0.097558931 
25870000   0.11730229 
25880000    0.1083203 
25890000   0.11329489 
25900000  0.097437348 
25910000  0.099448726 
25920000   0.10417717 
25930000   0.10228291 
25940000   0.11514581 
25950000  0.094477414 
25960000   0.10314844 
25970000  0.096879196 
25980000  0.098752932 
25990000   0.10183833 
26000000   0.11370933 
26010000   0.10273266 
26020000   0.10547598 
26030000   0.10599615 
26040000   0.10745982 
26050000   0.10385802 
26060000  0.096034093 
26070000   0.10770768 
26080000   0.10979898 
26090000  0.096221911 
26100000  0.097041559 
26110000    0.1006076 
26120000  0.099743893 
26130000   0.09343964 
26140000   0.10773003 
26150000  0.099470042 
26160000  0.099335226 
26170000   0.11011045 
26180000   0.10078174 
26190000   0.10041867 
26200000   0.10289617 
26210000   0.10147193 
26220000   0.10747136 
26230000  0.098307399 
26240000  0.094972704 
26250000   0.11648587 
26260000   0.10099229 
26270000  0.098591816 
26280000   0.10151409 
26290000   0.11833205 
26300000   0.10259021 
26310000  0.096755874 
26320000  0.092191689 
26330000   0.10844192 
26340000   0.10974084 
26350000   0.10275456 
26360000  0.094810532 
26370000   0.10192882 
26380000  0.096843081 
26390000  0.093511072 
26400000  0.097969953 
26410000   0.10267166 
26420000  0.094833659 
26430000   0.10114994 
26440000   0.10116481 
26450000   0.10177911 
26460000  0.099046518 
26470000   0.09393635 
26480000   0.09510585 
26490000    0.1043221 
26500000   0.10863214 
26510000   0.10006476 
26520000  0.099619028 
26530000  0.091187343 
26540000   0.10248094 
26550000  0.094291923 
26560000  0.098869991 
26570000   0.10916481 
26580000   0.10415282 
26590000   0.10103877 
26600000  0.094842215 
26610000   0.10476155 
26620000  0.097278814 
26630000    0.1057074 
26640000  0.097816216 
26650000   0.10297417 
26660000   0.09899411 
26670000   0.10881706 
26680000   0.10330785 
26690000  0.098017664 
26700000   0.10748175 
26710000  0.099281256 
26720000   0.09604876 
26730000  0.083786779 
26740000  0.099510315 
26750000   0.11269854 
26760000  0.096703952 
26770000  0.098650672 
26780000  0.097513753 
26790000   0.10148661 
26800000  0.095991427 
26810000   0.10366442 
26820000   0.10001687 
26830000    0.1056448 
26840000   0.10955864 
26850000  0.094849263 
26860000  0.096365456 
26870000  0.090966727 
26880000   0.10282493 
26890000   0.10138789 
26900000    0.1064769 
26910000   0.10719903 
26920000   0.10493945 
26930000  0.097419288 
26940000  0.096946625 
26950000   0.10189045 
26960000   0.10034866 
26970000  0.096334003 
26980000   0.11270919 
26990000   0.10235015 
27000000   0.10118904 
27010000  0.093351517 
27020000  0.097312121 
27030000   0.10078905 
27040000  0.098007339 
27050000   0.10284329 
27060000   0.10045661 
27070000   0.10771654 
27080000   0.10177409 
27090000  0.092585386 
27100000   0.10216441 
27110000   0.10390581 
27120000   0.11139977 
27130000  0.098900044 
27140000   0.10942822 
27150000   0.10243517 
27160000   0.10648924 
27170000  0.094731859 
27180000  0.091215069 
27190000    0.1063519 
27200000  0.095711913 
27210000  0.093574174 
27220000   0.11182604 
27230000   0.10062851 
27240000  0.092728504 
27250000   0.10455577 
27260000   0.10218909 
27270000  0.082600284 
27280000  0.094615066 
27290000   0.11581591 
27300000  0.099393163 
27310000   0.09334584 
27320000   0.10747264 
27330000   0.10320904 
27340000  0.099291585 
27350000  0.092141621 
27360000  0.093458528 
27370000   0.10290579 
27380000   0.10020455 
27390000   0.11189671 
27400000   0.10661986 
27410000   0.10206587 
27420000  0.097273443 
27430000  0.094886323 
27440000   0.09963939 
27450000   0.10200033 
27460000  0.096342086 
27470000  0.099160923 
27480000   0.10836151 
27490000  0.091403063 
27500000   0.11339558 
27510000   0.10207113 
27520000   0.10662871 
27530000   0.10007337 
27540000   0.11436704 
27550000   0.10077471 
27560000  0.094802084 
27570000   0.10168908 
27580000   0.10391272 
27590000   0.10963837 
27600000    0.1072707 
27610000    0.1093712 
27620000   0.10467571 
27630000   0.10291926 
27640000  0.094000379 
27650000   0.10675466 
27660000   0.09228209 
27670000  0.095601242 
27680000   0.09730482 
27690000    0.1005845 
27700000  0.095924431 
27710000   0.10258962 
27720000   0.10321424 
27730000   0.11627198 
27740000   0.10183669 
27750000  0.092867599 
27760000    0.1008742 
27770000   0.10119842 
27780000   0.10524204 
27790000   0.10632427 
27800000   0.11682561 
27810000   0.10675329 
27820000   0.10413338 
27830000   0.10935632 
27840000   0.10785901 
27850000   0.10411629 
27860000  0.099984709 
27870000   0.11004266 
27880000  0.089437062 
27890000  0.087260098 
27900000   0.10234357 
27910000  0.099010486 
27920000  0.085955335 
27930000   0.10179191 
27940000  0.090104968 
27950000  0.095181757 
27960000  0.098199519 
27970000  0.097889718 
27980000  0.092933878 
27990000  0.097690668 
28000000  0.097670389 
28010000   0.10352997 
28020000  0.099037873 
28030000  0.094637964 
28040000  0.087629509 
28050000   0.10100777 
28060000   0.10441106 
28070000   0.10717105 
28080000   0.11078137 
28090000   0.09419822 
28100000   0.10327956 
28110000    0.1015019 
28120000   0.10053987 
28130000    0.1032181 
28140000   0.10265158 
28150000  0.093916932 
28160000   0.10340384 
28170000   0.10848751 
28180000   0.10582059 
28190000  0.098095866 
28200000  0.090710608 
28210000   0.10390675 
28220000   0.10488137 
28230000   0.10182097 
28240000    0.1088065 
28250000  0.089696675 
28260000  0.094880609 
28270000  0.097992297 
28280000   0.10363949 
28290000  0.094266093 
28300000   0.10147155 
28310000  0.096400178 
28320000   0.10361047 
28330000   0.10721862 
28340000  0.096912942 
28350000    0.1115231 
28360000   0.10210983 
28370000   0.10009112 
28380000   0.10350252 
28390000  0.089441812 
28400000   0.10567031 
28410000  0.097187321 
28420000  0.098860098 
28430000  0.096526921 
28440000   0.09681628 
28450000    0.1078393 
28460000  0.090777345 
28470000   0.10908418 
28480000   0.10618236 
28490000   0.10057998 
28500000   0.09323883 
28510000    0.1119142 
28520000  0.089668714 
28530000  0.097574368 
28540000   0.10722439 
28550000  0.097877933 
28560000  0.096380756 
28570000  0.096894528 
28580000   0.10912422 
28590000  0.096990816 
28600000  0.088887824 
28610000   0.09786961 
28620000   0.10300666 
28630000  0.096380338 
28640000   0.10905052 
28650000   0.10713808 
28660000  0.091650042 
28670000  0.093366777 
28680000  0.093111557 
28690000  0.099191804 
28700000   0.11025924 
28710000   0.10394767 
28720000    0.1101563 
28730000  0.097910333 
28740000  0.093401356 
28750000   0.10288308 
28760000  0.099433498 
28770000  0.092912623 
28780000  0.097903476 
28790000   0.10098109 
28800000  0.099393239 
28810000  0.093866256 
28820000  0.096159839 
28830000  0.098471092 
28840000  0.093458114 
28850000  0.099962622 
28860000  0.097106985 
28870000  0.099451268 
28880000  0.093362644 
28890000  0.093773235 
28900000   0.10254662 
28910000     0.104789 
28920000  0.097953775 
28930000   0.09347853 
28940000   0.10564795 
28950000  0.098570215 
28960000   0.10416853 
28970000   0.09726486 
28980000  0.093619937 
28990000  0.099231829 
29000000   0.10501817 
29010000  0.095496483 
29020000  0.092650904 
29030000   0.10388464 
29040000  0.095282366 
29050000  0.096006931 
29060000   0.10940393 
29070000   0.09155575 
29080000  0.099456409 
29090000  0.093832902 
29100000   0.10779508 
29110000   0.10286542 
29120000   0.10234482 
29130000   0.10197035 
29140000  0.096456686 
29150000   0.10855256 
29160000  0.091852569 
29170000   0.10458961 
29180000   0.10130024 
29190000   0.10731735 
29200000  0.097924608 
29210000    0.1045078 
29220000   0.11197675 
29230000   0.10142407 
29240000  0.099553789 
29250000   0.10469957 
29260000  0.095611692 
29270000   0.10660905 
29280000   0.10286365 
29290000  0.099202752 
29300000   0.10775363 
29310000  0.095990271 
29320000   0.10675071 
29330000   0.11138748 
29340000   0.09047271 
29350000  0.096056484 
29360000  0.092606783 
29370000   0.10139544 
29380000   0.10322707 
29390000   0.10580971 
29400000   0.10369527 
29410000   0.10864666 
29420000  0.090690349 
29430000   0.10127786 
29440000   0.11213517 
29450000   0.10083881 
29460000   0.09311407 
29470000  0.087898875 
29480000  0.098973817 
29490000   0.10174999 
29500000  0.093689823 
29510000  0.096491971 
29520000   0.10264681 
29530000  0.096619377 
29540000   0.10111652 
29550000   0.10037794 
29560000   0.10586203 
29570000  0.097992662 
29580000    0.1069892 
29590000   0.10413462 
29600000  0.098176826 
29610000   0.10651631 
29620000  0.095738846 
29630000   0.10787939 
29640000  0.095832789 
29650000   0.10045695 
29660000   0.10503861 
29670000  0.093704988 
29680000  0.093321147 
29690000  0.095366616 
29700000   0.10075987 
29710000   0.09433006 
29720000   0.10216776 
29730000   0.10080004 
29740000  0.086665983 
29750000   0.10547954 
29760000   0.10295893 
29770000   0.10104619 
29780000   0.10644736 
29790000   0.10993705 
29800000   0.10533172 
29810000   0.10828563 
29820000  0.086309465 
29830000  0.093306177 
29840000   0.10149316 
29850000   0.10242731 
29860000   0.10211265 
29870000   0.10390206 
29880000   0.10485068 
29890000   0.10014144 
29900000   0.10398964 
29910000   0.10048442 
29920000  0.097229158 
29930000   0.10007022 
29940000   0.10616803 
29950000  0.099473251 
29960000   0.10354302 
29970000  0.096479519 
29980000  0.098554957 
29990000  0.090603414 
30000000  0.091520034 
30010000  0.089435992 
30020000   0.10449061 
30030000  0.098688183 
30040000    0.1047024 
30050000  0.096968153 
30060000   0.10568478 
30070000   0.10139552 
30080000  0.099706001 
30090000   0.10171576 
30100000   0.10430603 
30110000  0.098187327 
30120000   0.10361955 
30130000   0.10550453 
30140000   0.10442105 
30150000   0.10034398 
30160000   0.09877901 
30170000  0.098165629 
30180000  0.099350984 
30190000   0.10049099 
30200000   0.10093372 
30210000  0.099970589 
30220000   0.10740397 
30230000  0.091545133 
30240000   0.10366143 
30250000  0.091880788 
30260000  0.098875817 
30270000   0.10549805 
30280000   0.10385745 
30290000   0.09924188 
30300000   0.11052522 
30310000   0.10099555 
30320000  0.095975166 
30330000   0.10185027 
30340000  0.098218769 
30350000   0.10526218 
30360000  0.099654972 
30370000    0.1001088 
30380000    0.1042543 
30390000   0.10143379 
30400000   0.09831971 
30410000   0.10320566 
30420000   0.11436221 
30430000  0.097926991 
30440000   0.12186156 
30450000   0.10397736 
30460000   0.10266225 
30470000    0.1014267 
30480000   0.10728748 
30490000   0.10750468 
30500000   0.10137582 
30510000  0.099782206 
30520000  0.096252699 
30530000  0.089061757 
30540000   0.10494184 
30550000   0.10692076 
30560000   0.10013825 
30570000  0.098512361 
30580000  0.098807011 
30590000   0.08648029 
30600000   0.10793151 
30610000  0.096715386 
30620000   0.11217152 
30630000  0.093862254 
30640000   0.10016479 
30650000   0.10326295 
30660000   0.11396434 
30670000   0.11027513 
30680000   0.10972669 
30690000  0.099835861 
30700000   0.10051423 
30710000  0.092307066 
30720000  0.095885482 
30730000  0.099991781 
30740000  0.099745021 
30750000    0.1057564 
30760000   0.10182254 
30770000  0.098726044 
30780000  0.097564491 
30790000  0.098340594 
30800000  0.091875701 
30810000    0.1117754 
30820000  0.097686795 
30830000   0.09109513 
30840000    0.1199543 
30850000  0.098015595 
30860000   0.10294834 
30870000  0.093351168 
30880000   0.10591994 
30890000  0.093387182 
30900000   0.10227542 
30910000  0.095031139 
30920000   0.10494675 
30930000   0.10546601 
30940000   0.10391754 
30950000   0.11760831 
[...]
415430000  0.092552494 
415440000  0.094324972 
415450000   0.10039509 
415460000   0.10398674 
415470000  0.097375138 
415480000  0.098226824 
415490000    0.1018651 
415500000   0.10450621 
415510000   0.11020976 
415520000   0.10247601 
415530000  0.092970787 
415540000   0.11035678 
415550000   0.10047061 
415560000  0.098245318 
415570000   0.10399839 
415580000   0.10114556 
415590000   0.11072027 
415600000  0.095495692 
415610000   0.11087801 
415620000  0.081465605 
415630000  0.096035464 
415640000   0.10013529 
415650000   0.10263096 
415660000  0.096024191 
415670000   0.10598473 
415680000  0.099275289 
415690000   0.11173125 
415700000   0.10279848 
415710000   0.09410369 
415720000   0.09999386 
415730000   0.10083127 
415740000  0.094003487 
415750000   0.10537569 
415760000  0.098393211 
415770000  0.097734788 
415780000   0.10453945 
415790000  0.095284117 
415800000  0.090957412 
415810000  0.099687103 
415820000   0.10121603 
415830000   0.10389542 
415840000   0.10474094 
415850000   0.10380032 
415860000  0.090435784 
415870000   0.11335851 
415880000  0.097462161 
415890000   0.10242697 
415900000  0.094951795 
415910000  0.099498328 
415920000   0.10324567 
415930000  0.094988197 
415940000   0.10545429 
415950000  0.091302813 
415960000   0.10411249 
415970000   0.10522174 
415980000   0.09629188 
415990000  0.097806008 
416000000    0.1018427 
416010000  0.092524911 
416020000   0.10077758 
416030000    0.1097355 
416040000   0.11112883 
416050000  0.098918936 
416060000  0.092159373 
416070000   0.09861281 
416080000   0.10648579 
416090000   0.10612122 
416100000  0.093561015 
416110000   0.10238192 
416120000    0.1042404 
416130000   0.10285722 
416140000   0.10465698 
416150000   0.10061619 
416160000  0.094942142 
416170000   0.10198664 
416180000   0.10227976 
416190000   0.10209704 
416200000   0.10518672 
416210000   0.10438658 
416220000  0.090245185 
416230000   0.10652491 
416240000  0.097155356 
416250000  0.098560031 
416260000  0.090435883 
416270000  0.099001078 
416280000   0.09725665 
416290000  0.093215606 
416300000   0.10229358 
416310000    0.1025855 
416320000  0.099714058 
416330000  0.096149854 
416340000   0.10959565 
416350000   0.10741132 
416360000   0.09977408 
416370000  0.094482053 
416380000   0.11432919 
416390000  0.097916432 
416400000   0.10083385 
416410000   0.10070718 
416420000  0.098993698 
416430000   0.10678239 
416440000   0.10543755 
416450000    0.1038101 
416460000   0.10082198 
416470000  0.097612991 
416480000   0.11119603 
416490000   0.10832144 
416500000  0.099481399 
416510000   0.10096608 
416520000   0.09730444 
416530000   0.09186346 
416540000   0.10674524 
416550000  0.098488495 
416560000  0.095544745 
416570000  0.090865273 
416580000  0.099063898 
416590000  0.095485741 
416600000  0.086476946 
416610000   0.11301713 
416620000    0.1022919 
416630000  0.085259249 
416640000  0.099701606 
416650000  0.099953773 
416660000  0.097648933 
416670000   0.10206523 
416680000  0.098102985 
416690000   0.10744463 
416700000   0.11056744 
416710000  0.098865819 
416720000   0.10511379 
416730000  0.095534791 
416740000  0.092800786 
416750000  0.096029925 
416760000    0.0982149 
416770000  0.093298332 
416780000   0.10022024 
416790000   0.10289335 
416800000   0.10645112 
416810000  0.095102574 
416820000  0.099345304 
416830000  0.091761282 
416840000   0.11074411 
416850000   0.09841879 
416860000   0.10614538 
416870000  0.096508223 
416880000   0.10468619 
416890000  0.095620549 
416900000   0.10084435 
416910000  0.088638499 
416920000  0.092214146 
416930000  0.096083188 
416940000   0.10453754 
416950000   0.10116177 
416960000  0.099163987 
416970000   0.10545318 
416980000  0.094328131 
416990000   0.10820828 
417000000    0.1021644 
417010000    0.1029713 
417020000  0.099674043 
417030000   0.10130005 
417040000   0.10571269 
417050000  0.098617357 
417060000   0.10718685 
417070000   0.10581879 
417080000  0.089796927 
417090000  0.097754939 
417100000  0.097007141 
417110000   0.10401215 
417120000  0.094757015 
417130000   0.10301112 
417140000   0.10081837 
417150000   0.10297688 
417160000   0.10123613 
417170000  0.098006032 
417180000  0.094136195 
417190000  0.098500934 
417200000  0.097884244 
417210000   0.10578362 
417220000   0.10070452 
417230000  0.099217581 
417240000   0.10706795 
417250000  0.087285899 
417260000  0.099692163 
417270000   0.11412433 
417280000   0.10007549 
417290000   0.10169176 
417300000   0.10004702 
417310000  0.091435788 
417320000  0.095906418 
417330000  0.087402687 
417340000   0.10187146 
417350000   0.10525074 
417360000  0.090461342 
417370000   0.10400786 
417380000  0.097588136 
417390000     0.105278 
417400000  0.091853299 
417410000  0.095952001 
417420000  0.098835472 
417430000  0.086950587 
417440000   0.10339713 
417450000  0.098159113 
417460000  0.094363338 
417470000   0.10512081 
417480000  0.093953679 
417490000   0.10097762 
417500000   0.10845007 
417510000    0.1022386 
417520000  0.092509988 
417530000  0.094629972 
417540000  0.085704567 
417550000   0.09773955 
417560000  0.095052845 
417570000   0.10053286 
417580000  0.099532488 
417590000   0.10444915 
417600000  0.096935467 
417610000  0.095577754 
417620000   0.11087976 
417630000   0.10841095 
417640000  0.096633451 
417650000  0.092941878 
417660000   0.10841208 
417670000  0.097503266 
417680000   0.10481691 
417690000  0.092113086 
417700000  0.090280309 
417710000   0.10146494 
417720000   0.11055272 
417730000  0.088935074 
417740000   0.09397796 
417750000  0.094376059 
417760000   0.10534992 
417770000   0.09395895 
417780000   0.10313012 
417790000   0.11285481 
417800000   0.10086843 
417810000  0.095541147 
417820000  0.096963412 
417830000   0.10279528 
417840000  0.098373714 
417850000   0.10773836 
417860000   0.10000897 
417870000  0.099747991 
417880000   0.09792724 
417890000  0.098834885 
417900000   0.10389847 
417910000  0.089262828 
417920000  0.087150213 
417930000   0.11011654 
417940000   0.10019323 
417950000  0.099480569 
417960000  0.094486373 
417970000   0.10084319 
417980000   0.10483582 
417990000  0.096396748 
418000000   0.10206589 
418010000   0.10798613 
418020000  0.097408005 
418030000   0.10098446 
418040000   0.10735198 
418050000   0.09950291 
418060000    0.1016339 
418070000  0.096776292 
418080000   0.10279552 
418090000  0.099008269 
418100000  0.092420401 
418110000   0.10466025 
418120000  0.096860305 
418130000   0.10191772 
418140000   0.10209502 
418150000   0.09665776 
418160000   0.10704391 
418170000   0.10349093 
418180000  0.094714478 
418190000   0.10963568 
418200000   0.11977178 
418210000  0.098248765 
418220000  0.098489504 
418230000   0.10802884 
418240000   0.10033399 
418250000    0.1029635 
418260000   0.10345515 
418270000   0.10438583 
418280000   0.10271541 
418290000  0.096209508 
418300000  0.099628507 
418310000   0.09654209 
418320000   0.10175364 
418330000   0.10872326 
418340000   0.10621227 
418350000   0.10339464 
418360000  0.094382272 
418370000   0.09997898 
418380000   0.10288352 
418390000   0.10479831 
418400000   0.11718933 
418410000   0.10091411 
418420000  0.099894315 
418430000   0.10023298 
418440000  0.099814374 
418450000   0.10140218 
418460000   0.10095877 
418470000  0.098717057 
418480000  0.089896223 
418490000  0.094077503 
418500000   0.10704224 
418510000  0.091195177 
418520000   0.10643372 
418530000  0.098503154 
418540000   0.10497108 
418550000  0.095937249 
418560000  0.097024647 
418570000   0.10156666 
418580000   0.10735663 
418590000  0.094453588 
418600000  0.094204923 
418610000   0.11137629 
418620000  0.097939817 
418630000   0.10342463 
418640000   0.11220106 
418650000   0.10208998 
418660000   0.09115002 
418670000  0.097223704 
418680000  0.097727861 
418690000   0.10542318 
418700000   0.10111913 
418710000   0.10551713 
418720000   0.09707965 
418730000   0.11112461 
418740000  0.095779674 
418750000    0.1035608 
418760000  0.096825592 
418770000   0.10188159 
418780000  0.090643348 
418790000   0.10108436 
418800000   0.10217552 
418810000   0.10136081 
418820000  0.096147797 
418830000  0.091530495 
418840000   0.10524033 
418850000   0.10637709 
418860000  0.098511922 
418870000   0.10975604 
418880000   0.11356076 
418890000  0.090374052 
418900000   0.10391594 
418910000   0.10163121 
418920000   0.10417794 
418930000   0.10714696 
418940000   0.11155251 
418950000   0.10062814 
418960000   0.09980135 
418970000   0.10870929 
418980000   0.10043322 
418990000   0.09971962 
419000000  0.095842014 
419010000  0.096694932 
419020000   0.10303596 
419030000  0.098885474 
419040000  0.094017817 
419050000  0.094901575 
419060000   0.10661967 
419070000   0.10271181 
419080000  0.090954488 
419090000   0.09911655 
419100000    0.1022046 
419110000  0.097713247 
419120000   0.10356326 
419130000  0.097206664 
419140000    0.1022076 
419150000   0.10060476 
419160000   0.10617218 
419170000  0.093871943 
419180000  0.099807523 
419190000   0.10054957 
419200000  0.098967184 
419210000  0.096910426 
419220000   0.11018822 
419230000  0.099424058 
419240000  0.097651926 
419250000  0.095902548 
419260000   0.10396409 
419270000   0.10198409 
419280000   0.10022057 
419290000  0.092653607 
419300000  0.099810108 
419310000  0.097748389 
419320000   0.10319987 
419330000    0.0878539 
419340000  0.093490526 
419350000  0.094361521 
419360000  0.097262839 
419370000   0.10536575 
419380000  0.098853442 
419390000   0.11308947 
419400000    0.1068788 
419410000   0.10120664 
419420000  0.093741254 
419430000  0.093796053 
419440000  0.088412119 
419450000   0.09366325 
419460000   0.11087315 
419470000  0.095253179 
419480000   0.10455975 
419490000    0.1007375 
419500000   0.10336379 
419510000  0.094151439 
419520000   0.10820876 
419530000  0.091067852 
419540000   0.10035784 
419550000   0.10057026 
419560000  0.097308311 
419570000    0.1062366 
419580000   0.10840029 
419590000   0.11330496 
419600000  0.093169346 
419610000    0.0969616 
419620000   0.10353601 
419630000   0.10423783 
419640000  0.099434673 
419650000  0.097562532 
419660000  0.098489379 
419670000   0.10140066 
419680000  0.094707085 
419690000   0.10362261 
419700000  0.090068392 
419710000  0.099051693 
419720000  0.096070839 
419730000  0.096784278 
419740000   0.10505357 
419750000  0.091093611 
419760000   0.10673404 
419770000  0.096691446 
419780000   0.10920345 
419790000  0.099223716 
419800000   0.10159569 
419810000  0.099404407 
419820000   0.10370394 
419830000  0.099050514 
419840000   0.10106294 
419850000   0.10434197 
419860000   0.10488154 
419870000  0.091627552 
419880000    0.1007146 
419890000  0.099419417 
419900000   0.10720834 
419910000  0.091720263 
419920000  0.089168892 
419930000  0.094089976 
419940000  0.093415396 
419950000   0.10132528 
419960000  0.097534446 
419970000  0.095170262 
419980000  0.096985052 
419990000   0.10650805 
420000000   0.10289591 
420010000   0.09037348 
420020000  0.087096859 
420030000   0.10189876 
420040000  0.098458134 
420050000  0.088435141 
420060000   0.09697863 
420070000  0.093595964 
420080000  0.099749269 
420090000   0.10847492 
420100000   0.10432097 
420110000    0.1005596 
420120000  0.092913281 
420130000  0.096933345 
420140000   0.10446137 
420150000   0.10609742 
420160000   0.10179346 
420170000  0.099100899 
420180000  0.099939228 
420190000   0.11164969 
420200000   0.10527432 
420210000  0.098808985 
420220000  0.096916487 
420230000   0.10664857 
420240000  0.099383683 
420250000  0.095254053 
420260000  0.097137757 
420270000  0.092333564 
420280000  0.094674956 
420290000   0.10559275 
420300000   0.10039905 
420310000   0.10660019 
420320000  0.097902106 
420330000    0.1062055 
420340000   0.10296205 
420350000   0.10473379 
420360000  0.098352329 
420370000   0.10270157 
420380000   0.11054282 
420390000   0.10145655 
420400000   0.10622159 
420410000  0.097251467 
420420000   0.10388361 
420430000   0.10500774 
420440000    0.1057881 
420450000  0.094827447 
420460000  0.096837126 
420470000  0.094972669 
420480000   0.10029443 
420490000  0.099008561 
420500000   0.10964131 
420510000   0.10234414 
420520000  0.099705597 
420530000   0.10943428 
420540000  0.097322256 
420550000   0.09608722 
420560000   0.10734736 
420570000    0.1066238 
420580000   0.10145939 
420590000  0.098990537 
420600000   0.10250532 
420610000  0.097303837 
420620000   0.10480968 
420630000   0.10278952 
420640000   0.10961302 
420650000   0.10220104 
420660000   0.09693204 
420670000  0.091486779 
420680000   0.10540435 
420690000   0.09531959 
420700000  0.098687854 
420710000  0.097273449 
420720000  0.096514843 
420730000   0.10910319 
420740000   0.10093796 
420750000   0.10068884 
420760000  0.092655833 
420770000   0.10414796 
420780000   0.10448968 
420790000  0.095791654 
420800000   0.10648583 
420810000  0.095020589 
420820000   0.10303011 
420830000   0.10596994 
420840000   0.11110806 
420850000  0.088198162 
420860000  0.096209817 
420870000   0.09981142 
420880000   0.10454151 
420890000   0.09283396 
420900000    0.1095819 
420910000  0.094071977 
420920000   0.10172646 
420930000   0.10954811 
420940000  0.098800961 
420950000   0.10552825 
420960000   0.10312106 
420970000   0.11121841 
420980000   0.10590591 
420990000    0.1024728 
421000000  0.099838353 
421010000   0.10199485 
421020000  0.093583491 
421030000   0.10194233 
421040000    0.1085846 
421050000   0.10207883 
421060000   0.10452147 
421070000  0.099543492 
421080000   0.10517548 
421090000   0.10394833 
421100000   0.10808546 
421110000  0.098073349 
421120000  0.097938658 
421130000  0.096907009 
421140000  0.098626188 
421150000   0.11646212 
421160000   0.10821171 
421170000   0.10142541 
421180000   0.10777159 
421190000   0.10078119 
421200000    0.1027544 
421210000  0.098403993 
421220000   0.10401224 
421230000  0.094965184 
421240000  0.097585646 
421250000  0.096476817 
421260000   0.10189818 
421270000  0.093298554 
421280000  0.099079872 
421290000  0.099546682 
421300000  0.094187547 
421310000  0.098853793 
421320000   0.10612367 
421330000   0.10820632 
421340000   0.10042403 
421350000  0.095381188 
421360000   0.09840347 
421370000   0.10270277 
421380000  0.096158624 
421390000   0.10185416 
421400000  0.096101287 
421410000   0.10026698 
421420000  0.089513983 
421430000   0.10105671 
421440000  0.096675673 
421450000  0.099734083 
421460000    0.1013546 
421470000   0.11567143 
421480000  0.092502515 
421490000   0.10703687 
421500000   0.10387595 
421510000   0.10953653 
421520000  0.098856783 
421530000   0.10376209 
421540000   0.10030126 
421550000   0.10942759 
421560000  0.097984717 
421570000   0.11004562 
421580000  0.099102017 
421590000   0.10705211 
421600000   0.10941871 
421610000   0.10668612 
421620000   0.10111512 
421630000  0.090887158 
421640000   0.10193437 
421650000   0.10426052 
421660000   0.10603396 
421670000   0.10610489 
421680000   0.11055041 
421690000  0.096685781 
421700000   0.10619308 
421710000  0.099714845 
421720000   0.10443692 
421730000   0.09575573 
421740000  0.099868961 
421750000  0.099996465 
421760000  0.084215779 
421770000   0.10105825 
421780000   0.10355746 
421790000   0.10037236 
421800000   0.10017406 
421810000  0.095316968 
421820000   0.10062267 
421830000   0.10095753 
421840000  0.093178741 
421850000   0.10225962 
421860000   0.10239156 
421870000  0.098969942 
421880000  0.099916428 
421890000  0.095480232 
421900000  0.099278746 
421910000   0.10388391 
421920000   0.10968008 
421930000   0.10578171 
421940000  0.092247066 
421950000   0.09720331 
421960000  0.094994064 
421970000   0.09645043 
421980000   0.10471429 
421990000   0.10166454 
422000000  0.091618193 
422010000   0.10749613 
422020000    0.1010064 
422030000  0.099707808 
422040000   0.10412218 
422050000  0.089537219 
422060000  0.095946083 
422070000   0.10994727 
422080000   0.10496089 
422090000  0.097988191 
422100000  0.091912245 
422110000   0.10514722 
422120000   0.10833794 
422130000   0.10177605 
422140000   0.10761917 
422150000   0.10169825 
422160000    0.1059652 
422170000    0.1012567 
422180000  0.095949313 
422190000  0.095825575 
422200000   0.09975162 
422210000   0.10521199 
422220000  0.099495836 
422230000   0.10323264 
422240000   0.10452638 
422250000   0.09793811 
422260000  0.099451466 
422270000   0.10159513 
422280000    0.1028204 
422290000   0.10184895 
422300000  0.095886129 
422310000  0.097555857 
422320000   0.10220489 
422330000    0.1031795 
422340000   0.10357419 
422350000   0.10880223 
422360000  0.092321924 
422370000   0.10910274 
422380000  0.092160197 
422390000   0.10370029 
422400000   0.11422976 
422410000   0.10977172 
422420000  0.098517464 
422430000   0.09326272 
422440000   0.09908114 
422450000  0.098865069 
422460000   0.10628378 
422470000   0.10945927 
422480000  0.090710638 
422490000  0.097805777 
422500000  0.098881529 
422510000   0.10356873 
422520000   0.10549921 
422530000   0.10373223 
422540000  0.099708246 
422550000   0.09151549 
422560000   0.11884143 
422570000  0.098111615 
422580000   0.10250909 
422590000  0.099042823 
422600000  0.099252837 
422610000   0.10418715 
422620000   0.10216974 
422630000   0.10128284 
422640000   0.10538279 
422650000   0.10681158 
422660000   0.10492475 
422670000  0.096963049 
422680000  0.093228487 
422690000   0.10218495 
422700000   0.10880944 
422710000  0.097519102 
422720000  0.095246715 
422730000  0.099818851 
422740000  0.099447824 
422750000   0.10945907 
422760000  0.090087114 
422770000   0.12450057 
422780000   0.10673849 
422790000  0.095835602 
422800000  0.094122411 
422810000  0.095349249 
422820000   0.10124045 
422830000   0.10359498 
422840000  0.096298013 
422850000   0.10318466 
422860000  0.095423697 
422870000  0.097440755 
422880000   0.10637627 
422890000     0.102477 
422900000   0.10862323 
422910000   0.10381474 
422920000   0.10450936 
422930000  0.094968193 
422940000  0.098286734 
422950000  0.087187952 
422960000   0.10581049 
422970000  0.097788906 
422980000   0.10409386 
422990000  0.095626167 
423000000   0.10592503 
423010000   0.10185762 
423020000   0.11501881 
423030000   0.11023647 
423040000  0.092446273 
423050000  0.095937373 
423060000  0.097015575 
423070000   0.09430375 
423080000  0.096566104 
423090000   0.10589425 
423100000   0.10142976 
423110000   0.09892813 
423120000  0.091640572 
423130000   0.10292378 
423140000  0.091075718 
423150000  0.098039109 
423160000  0.088653853 
423170000  0.098073588 
423180000  0.099556367 
423190000   0.10119766 
423200000  0.097858444 
423210000   0.10261988 
423220000  0.098533858 
423230000   0.10540613 
423240000   0.10167486 
423250000   0.10219623 
423260000  0.099028566 
423270000   0.10437715 
423280000   0.10228318 
423290000   0.10322192 
423300000   0.10074937 
423310000   0.10033392 
423320000  0.098772027 
423330000  0.086528461 
423340000   0.10187405 
423350000   0.10100052 
423360000  0.091259315 
423370000  0.093140465 
423380000   0.10596353 
423390000  0.090566666 
423400000  0.097593525 
423410000   0.10600996 
423420000   0.10508862 
423430000  0.099438461 
423440000   0.10293042 
423450000  0.097132277 
423460000  0.092333007 
423470000   0.09381068 
423480000  0.086032856 
423490000  0.099371232 
423500000  0.086449201 
423510000  0.091887372 
423520000    0.1043165 
423530000   0.10197304 
423540000  0.094579968 
423550000   0.10724989 
423560000   0.10779712 
423570000    0.1161811 
423580000    0.1037635 
423590000   0.10249622 
423600000   0.09547694 
423610000   0.10126694 
423620000  0.099937173 
423630000  0.093621063 
423640000   0.10194421 
423650000   0.11386566 
423660000   0.10228312 
423670000  0.092792443 
423680000   0.10627989 
423690000  0.096383242 
423700000   0.10123194 
423710000    0.1084836 
423720000   0.10679081 
423730000   0.10139383 
423740000   0.10360069 
423750000   0.10728268 
423760