# LAMMPS data file
153 atoms
153 ellipsoids
150 bonds

4 atom types
1 bond types

# System size
0.000000 38.000000 xlo xhi
0.000000 38.000000 ylo yhi
0.000000 38.000000 zlo zhi

Masses

1 3.1575
2 3.1575
3 3.1575
4 3.1575

# Atom-ID, type, position, molecule-ID, ellipsoid flag, density
Atoms

1 3  3.063142538070679e+00  5.180722236633301e+00  1.258596134185791e+01 1 1 1
2 2  3.454605340957642e+00  4.821489334106445e+00  1.250602054595947e+01 1 1 1
3 4  3.658607006072998e+00  4.339751720428467e+00  1.238365650177002e+01 1 1 1
4 1  3.664483308792114e+00  3.856694936752319e+00  1.214852905273438e+01 1 1 1
5 3  3.536846637725830e+00  3.494010925292969e+00  1.177321243286133e+01 1 1 1
6 2  3.391074657440186e+00  3.327672958374023e+00  1.128349113464355e+01 1 1 1
7 1  3.349387168884277e+00  3.359067440032959e+00  1.074876499176025e+01 1 1 1
8 2  3.494468927383423e+00  3.514446735382080e+00  1.025528812408447e+01 1 1 1
9 2  3.838077306747437e+00  3.672925233840942e+00  9.873865127563477e+00 1 1 1
10 4  4.316543102264404e+00  3.712483882904053e+00  9.632608413696289e+00 1 1 1
11 1  4.814887523651123e+00  3.556312561035156e+00  9.506393432617188e+00 1 1 1
12 2  5.210681915283203e+00  3.201843738555908e+00  9.426395416259766e+00 1 1 1
13 2  5.420416355133057e+00  2.721972227096558e+00  9.306267738342285e+00 1 1 1
14 2  5.431233406066895e+00  2.237198352813721e+00  9.074836730957031e+00 1 1 1
15 3  5.305934429168701e+00  1.869820117950439e+00  8.703395843505859e+00 1 1 1
16 4  5.158915519714355e+00  1.697635054588318e+00  8.216116905212402e+00 1 1 1
17 1  5.112959384918213e+00  1.724206209182739e+00  7.681467533111572e+00 1 1 1
18 2  5.252306938171387e+00  1.877633929252625e+00  7.185703754425049e+00 1 1 1
19 3  5.590945720672607e+00  2.037771701812744e+00  6.800544738769531e+00 1 1 1
20 1  6.067028999328613e+00  2.081991434097290e+00  6.555422782897949e+00 1 1 1
21 3  6.566531658172607e+00  1.931707620620728e+00  6.426741123199463e+00 1 1 1
22 1  6.966604709625244e+00  1.582087874412537e+00  6.346619606018066e+00 1 1 1
23 1  7.182062149047852e+00  1.104195475578308e+00  6.228699684143066e+00 1 1 1
24 3  7.197916030883789e+00  6.177884936332703e-01  6.001147747039795e+00 1 1 1
25 3  7.074971199035645e+00  2.458124458789825e-01  5.633404254913330e+00 1 1 1
26 3  6.926866531372070e+00  6.772853434085846e-02  5.148580074310303e+00 1 1 1
27 2  6.876655578613281e+00  8.942167460918427e-02  4.614063262939453e+00 1 1 1
28 1  7.267507553100586e+00 -5.409515500068665e-01  3.791920900344849e+00 1 1 1
29 1  7.499638557434082e+00 -8.271442055702209e-01  3.400903463363647e+00 1 1 1
30 1  7.594526290893555e+00 -1.267043948173523e+00  3.107355833053589e+00 1 1 1
31 1  7.477400779724121e+00 -1.743791580200195e+00  2.889003515243530e+00 1 1 1
32 1  7.348817825317383e+00 -2.758895874023438e+00  2.465376853942871e+00 1 1 1
33 1  7.128657341003418e+00 -2.978114128112793e+00  2.026993989944458e+00 1 1 1
34 1  7.128294467926025e+00 -3.252845764160156e+00  1.565276026725769e+00 1 1 1
35 4  7.308963775634766e+00 -3.614561319351196e+00  1.211436629295349e+00 1 1 1
36 1  7.562981128692627e+00 -4.061720371246338e+00  1.055801510810852e+00 1 1 1
37 3  7.754821777343750e+00 -4.560278415679932e+00  1.113260149955750e+00 1 1 1
38 4  7.772657394409180e+00 -5.056716442108154e+00  1.318035840988159e+00 1 1 1
39 3  7.570675849914551e+00 -5.498272418975830e+00  1.548120379447937e+00 1 1 1
40 3  7.186623573303223e+00 -5.853044986724854e+00  1.671909451484680e+00 1 1 1
41 3  6.727447986602783e+00 -6.122137069702148e+00  1.598243236541748e+00 1 1 1
42 2  6.328564643859863e+00 -6.339177131652832e+00  1.311120271682739e+00 1 1 1
43 3  6.102483749389648e+00 -6.557542800903320e+00  8.753845691680908e-01 1 1 1
44 3  6.096184730529785e+00 -6.830143928527832e+00  4.123780727386475e-01 1 1 1
45 4  6.272981166839600e+00 -7.189307689666748e+00  5.402326211333275e-02 1 1 1
46 1  6.526806354522705e+00 -7.634402751922607e+00 -1.078265905380249e-01 1 1 1
47 4  6.722116947174072e+00 -8.132226943969727e+00 -5.559658631682396e-02 1 1 1
48 2  6.745765686035156e+00 -8.629493713378906e+00  1.465554237365723e-01 1 1 1
49 1  6.549757480621338e+00 -9.073106765747070e+00  3.776726424694061e-01 1 1 1
50 4  6.169647693634033e+00 -9.430486679077148e+00  5.060302019119263e-01 1 1 1
51 2  5.710709095001221e+00 -9.701625823974609e+00  4.384489655494690e-01 1 1 1
52 3  1.170016574859619e+01  7.032327175140381e+00 -6.469490051269531e+00 2 1 1
53 2  1.196234798431396e+01  6.697701930999756e+00 -6.140990734100342e+00 2 1 1
54 4  1.217430782318115e+01  6.537150859832764e+00 -5.674068927764893e+00 2 1 1
55 1  1.221938896179199e+01  6.516154289245605e+00 -5.139059066772461e+00 2 1 1
56 3  1.204431343078613e+01  6.547119617462158e+00 -4.632079124450684e+00 2 1 1
57 2  1.167938995361328e+01  6.522699832916260e+00 -4.238441467285156e+00 2 1 1
58 1  1.122708892822266e+01  6.356615066528320e+00 -4.000632762908936e+00 2 1 1
59 3  1.082315063476562e+01  6.016432762145996e+00 -3.901765823364258e+00 2 1 1
60 2  1.058483219146729e+01  5.535824298858643e+00 -3.872207880020142e+00 2 1 1
61 1  1.056646919250488e+01  5.001754760742188e+00 -3.816061258316040e+00 2 1 1
62 4  1.073898124694824e+01  4.521663665771484e+00 -3.647472858428955e+00 2 1 1
63 1  1.100055694580078e+01  4.182303905487061e+00 -3.323266267776489e+00 2 1 1
64 3  1.121570968627930e+01  4.017087936401367e+00 -2.859478712081909e+00 2 1 1
65 4  1.126652050018311e+01  3.993194103240967e+00 -2.325109720230103e+00 2 1 1
66 3  1.109753799438477e+01  4.024160385131836e+00 -1.816059827804565e+00 2 1 1
67 3  1.073676395416260e+01  4.002632617950439e+00 -1.418468236923218e+00 2 1 1
68 4  1.028513908386230e+01  3.841265678405762e+00 -1.176181793212891e+00 2 1 1
69 2  9.878028869628906e+00  3.505766630172729e+00 -1.074185490608215e+00 2 1 1
70 2  9.633951187133789e+00  3.028036117553711e+00 -1.044048428535461e+00 2 1 1
71 3  9.609519958496094e+00  2.494065761566162e+00 -9.899221658706665e-01 2 1 1
72 4  9.777775764465332e+00  2.011080741882324e+00 -8.252541422843933e-01 2 1 1
73 2  1.003866577148438e+01  1.667054057121277e+00 -5.055329799652100e-01 2 1 1
74 1  1.025689029693604e+01  1.497113466262817e+00 -4.485266655683517e-02 2 1 1
75 1  1.031343650817871e+01  1.470293521881104e+00  4.887658059597015e-01 2 1 1
76 2  1.015059375762939e+01  1.501170277595520e+00  9.998796582221985e-01 2 1 1
77 4  9.794052124023438e+00  1.482465744018555e+00  1.401398181915283e+00 2 1 1
78 2  9.343160629272461e+00  1.325746417045593e+00  1.648035287857056e+00 2 1 1
79 1  9.102162361145020e+00  7.399727702140808e-01  2.543680667877197e+00 2 1 1
80 1  8.965874671936035e+00  4.649482667446136e-01  2.984673261642456e+00 2 1 1
81 1  8.763141632080078e+00  4.015489220619202e-01  3.478196859359741e+00 2 1 1
82 1  8.446154594421387e+00  5.200901627540588e-01  3.895512342453003e+00 2 1 1
83 3  7.844514846801758e+00  7.721529006958008e-01  4.806762695312500e+00 2 1 1
84 2  7.442373752593994e+00  1.119304418563843e+00  4.887020111083984e+00 2 1 1
85 2  6.942265987396240e+00  1.266733407974243e+00  5.016897678375244e+00 2 1 1
86 2  6.467417716979980e+00  1.220168232917786e+00  5.263884544372559e+00 2 1 1
87 4  6.131302833557129e+00  1.059217691421509e+00  5.650978088378906e+00 2 1 1
88 4  5.994786739349365e+00  9.068006873130798e-01  6.147767066955566e+00 2 1 1
89 2  6.042887210845947e+00  8.826389312744141e-01  6.682297706604004e+00 2 1 1
90 4  6.190443515777588e+00  1.057812571525574e+00  7.168400764465332e+00 2 1 1
91 2  6.314580440521240e+00  1.427474379539490e+00  7.538000583648682e+00 2 1 1
92 3  6.301262378692627e+00  1.913095355033875e+00  7.767539978027344e+00 2 1 1
93 4  6.088659763336182e+00  2.391945123672485e+00  7.886506080627441e+00 2 1 1
94 1  5.690731525421143e+00  2.743997097015381e+00  7.966559410095215e+00 2 1 1
95 2  5.191753864288330e+00  2.897294998168945e+00  8.093994140625000e+00 2 1 1
96 3  4.714511394500732e+00  2.855325222015381e+00  8.337146759033203e+00 2 1 1
97 3  4.373393535614014e+00  2.696012020111084e+00  8.720510482788086e+00 2 1 1
98 3  4.231152534484863e+00  2.541600704193115e+00  9.215033531188965e+00 2 1 1
99 4  4.274993896484375e+00  2.512629747390747e+00  9.749815940856934e+00 2 1 1
100 1  4.421389102935791e+00  2.681882143020630e+00  1.023823642730713e+01 2 1 1
101 3  4.547852039337158e+00  3.046940803527832e+00  1.061169147491455e+01 2 1 1
102 3  4.539520740509033e+00  3.530865669250488e+00  1.084491729736328e+01 2 1 1
103 3  4.563602924346924e+00 -1.192675781250000e+01 -8.522460460662842e-01 3 1 1
104 2  4.798368453979492e+00 -1.170956802368164e+01 -4.205268919467926e-01 3 1 1
105 4  5.202343463897705e+00 -1.149136161804199e+01 -1.415089070796967e-01 3 1 1
106 1  5.661096572875977e+00 -1.121917915344238e+01 -7.699006050825119e-02 3 1 1
107 3  6.039309501647949e+00 -1.086052608489990e+01 -2.075488567352295e-01 3 1 1
108 2  6.232254981994629e+00 -1.041584491729736e+01 -4.392036199569702e-01 3 1 1
109 1  6.205687999725342e+00 -9.918196678161621e+00 -6.400141119956970e-01 3 1 1
110 3  6.008698940277100e+00 -9.420771598815918e+00 -6.894845366477966e-01 3 1 1
111 1  5.755048274993896e+00 -8.976702690124512e+00 -5.246341228485107e-01 3 1 1
112 4  5.580143928527832e+00 -8.618865013122559e+00 -1.640179455280304e-01 3 1 1
113 3  5.589502334594727e+00 -8.347269058227539e+00  2.994685769081116e-01 3 1 1
114 1  5.818440914154053e+00 -8.129302024841309e+00  7.339340448379517e-01 3 1 1
115 4  6.219081878662109e+00 -7.911887168884277e+00  1.018404483795166e+00 3 1 1
116 1  6.678131580352783e+00 -7.641768932342529e+00  1.088938355445862e+00 3 1 1
117 2  7.060216903686523e+00 -7.285696029663086e+00  9.628976583480835e-01 3 1 1
118 2  7.259211063385010e+00 -6.843097209930420e+00  7.322657108306885e-01 3 1 1
119 3  7.238467693328857e+00 -6.346239089965820e+00  5.288321971893311e-01 3 1 1
120 2  7.044859409332275e+00 -5.848061084747314e+00  4.739633798599243e-01 3 1 1
121 2  6.790974617004395e+00 -5.401919841766357e+00  6.326692104339600e-01 3 1 1
122 2  6.612211704254150e+00 -5.041482448577881e+00  9.888300895690918e-01 3 1 1
123 1  6.615576267242432e+00 -4.767836093902588e+00  1.451219201087952e+00 3 1 1
124 2  6.838691234588623e+00 -4.549049377441406e+00  1.888248085975647e+00 3 1 1
125 4  7.235811233520508e+00 -4.332394599914551e+00  2.178141593933105e+00 3 1 1
126 1  7.695108413696289e+00 -4.064312458038330e+00  2.254756927490234e+00 3 1 1
127 4  8.081007003784180e+00 -3.710797548294067e+00  2.133240222930908e+00 3 1 1
128 4  8.285995483398438e+00 -3.270299434661865e+00  1.903824567794800e+00 3 1 1
129 4  8.271114349365234e+00 -2.774300098419189e+00  1.697816014289856e+00 3 1 1
130 1  8.723095893859863e+00 -1.785846471786499e+00  1.915854573249817e+00 3 1 1
131 1  8.929711341857910e+00 -1.300788760185242e+00  2.019375085830688e+00 3 1 1
132 1  9.160148620605469e+00 -8.311741948127747e-01  1.896721124649048e+00 3 1 1
133 1  9.283000946044922e+00 -4.147055447101593e-01  1.580261826515198e+00 3 1 1
134 3  9.557714462280273e+00  4.094770848751068e-01  9.034605026245117e-01 3 1 1
135 1  9.297226905822754e+00  7.558402419090271e-01  5.859354734420776e-01 3 1 1
136 3  9.131105422973633e+00  1.240223407745361e+00  4.231708943843842e-01 3 1 1
137 4  9.158649444580078e+00  1.774177908897400e+00  3.700591921806335e-01 3 1 1
138 4  9.405526161193848e+00  2.250390291213989e+00  3.395301401615143e-01 3 1 1
139 3  9.814159393310547e+00  2.583533287048340e+00  2.359274178743362e-01 3 1 1
140 1  1.026544189453125e+01  2.742594480514526e+00 -8.515416644513607e-03 3 1 1
141 2  1.062407684326172e+01  2.762673377990723e+00 -4.080588221549988e-01 3 1 1
142 3  1.079000759124756e+01  2.731753349304199e+00 -9.182084798812866e-01 3 1 1
143 3  1.073630619049072e+01  2.757079839706421e+00 -1.452173113822937e+00 3 1 1
144 1  1.051961231231689e+01  2.924666881561279e+00 -1.914337754249573e+00 3 1 1
145 2  1.025834274291992e+01  3.266357421875000e+00 -2.236386299133301e+00 3 1 1
146 2  1.008798122406006e+01  3.747895717620850e+00 -2.403020143508911e+00 3 1 1
147 1  1.010940074920654e+01  4.281940937042236e+00 -2.458133459091187e+00 3 1 1
148 2  1.035060691833496e+01  4.761137008666992e+00 -2.487970829010010e+00 3 1 1
149 4  1.075610733032227e+01  5.098953247070312e+00 -2.588407754898071e+00 3 1 1
150 1  1.120808887481689e+01  5.262678146362305e+00 -2.828426361083984e+00 3 1 1
151 4  1.157094001770020e+01  5.285647869110107e+00 -3.224040031433105e+00 3 1 1
152 3  1.174298667907715e+01  5.254666805267334e+00 -3.732058286666870e+00 3 1 1
153 2  1.169503784179688e+01  5.277120590209961e+00 -4.266781330108643e+00 3 1 1

# Atom-ID, translational, rotational velocity
Velocities

1  0.000000000000000e+00  0.000000000000000e+00  0.000000000000000e+00  0.000000000000000e+00  0.000000000000000e+00  0.000000000000000e+00
2  0.000000000000000e+00  0.000000000000000e+00  0.000000000000000e+00  0.000000000000000e+00  0.000000000000000e+00  0.000000000000000e+00
3  0.000000000000000e+00  0.000000000000000e+00  0.000000000000000e+00  0.000000000000000e+00  0.000000000000000e+00  0.000000000000000e+00
4  0.000000000000000e+00  0.000000000000000e+00  0.000000000000000e+00  0.000000000000000e+00  0.000000000000000e+00  0.000000000000000e+00
5  0.000000000000000e+00  0.000000000000000e+00  0.000000000000000e+00  0.000000000000000e+00  0.000000000000000e+00  0.000000000000000e+00
6  0.000000000000000e+00  0.000000000000000e+00  0.000000000000000e+00  0.000000000000000e+00  0.000000000000000e+00  0.000000000000000e+00
7  0.000000000000000e+00  0.000000000000000e+00  0.000000000000000e+00  0.000000000000000e+00  0.000000000000000e+00  0.000000000000000e+00
8  0.000000000000000e+00  0.000000000000000e+00  0.000000000000000e+00  0.000000000000000e+00  0.000000000000000e+00  0.000000000000000e+00
9  0.000000000000000e+00  0.000000000000000e+00  0.000000000000000e+00  0.000000000000000e+00  0.000000000000000e+00  0.000000000000000e+00
10  0.000000000000000e+00  0.000000000000000e+00  0.000000000000000e+00  0.000000000000000e+00  0.000000000000000e+00  0.000000000000000e+00
11  0.000000000000000e+00  0.000000000000000e+00  0.000000000000000e+00  0.000000000000000e+00  0.000000000000000e+00  0.000000000000000e+00
12  0.000000000000000e+00  0.000000000000000e+00  0.000000000000000e+00  0.000000000000000e+00  0.000000000000000e+00  0.000000000000000e+00
13  0.000000000000000e+00  0.000000000000000e+00  0.000000000000000e+00  0.000000000000000e+00  0.000000000000000e+00  0.000000000000000e+00
14  0.000000000000000e+00  0.000000000000000e+00  0.000000000000000e+00  0.000000000000000e+00  0.000000000000000e+00  0.000000000000000e+00
15  0.000000000000000e+00  0.000000000000000e+00  0.000000000000000e+00  0.000000000000000e+00  0.000000000000000e+00  0.000000000000000e+00
16  0.000000000000000e+00  0.000000000000000e+00  0.000000000000000e+00  0.000000000000000e+00  0.000000000000000e+00  0.000000000000000e+00
17  0.000000000000000e+00  0.000000000000000e+00  0.000000000000000e+00  0.000000000000000e+00  0.000000000000000e+00  0.000000000000000e+00
18  0.000000000000000e+00  0.000000000000000e+00  0.000000000000000e+00  0.000000000000000e+00  0.000000000000000e+00  0.000000000000000e+00
19  0.000000000000000e+00  0.000000000000000e+00  0.000000000000000e+00  0.000000000000000e+00  0.000000000000000e+00  0.000000000000000e+00
20  0.000000000000000e+00  0.000000000000000e+00  0.000000000000000e+00  0.000000000000000e+00  0.000000000000000e+00  0.000000000000000e+00
21  0.000000000000000e+00  0.000000000000000e+00  0.000000000000000e+00  0.000000000000000e+00  0.000000000000000e+00  0.000000000000000e+00
22  0.000000000000000e+00  0.000000000000000e+00  0.000000000000000e+00  0.000000000000000e+00  0.000000000000000e+00  0.000000000000000e+00
23  0.000000000000000e+00  0.000000000000000e+00  0.000000000000000e+00  0.000000000000000e+00  0.000000000000000e+00  0.000000000000000e+00
24  0.000000000000000e+00  0.000000000000000e+00  0.000000000000000e+00  0.000000000000000e+00  0.000000000000000e+00  0.000000000000000e+00
25  0.000000000000000e+00  0.000000000000000e+00  0.000000000000000e+00  0.000000000000000e+00  0.000000000000000e+00  0.000000000000000e+00
26  0.000000000000000e+00  0.000000000000000e+00  0.000000000000000e+00  0.000000000000000e+00  0.000000000000000e+00  0.000000000000000e+00
27  0.000000000000000e+00  0.000000000000000e+00  0.000000000000000e+00  0.000000000000000e+00  0.000000000000000e+00  0.000000000000000e+00
28  0.000000000000000e+00  0.000000000000000e+00  0.000000000000000e+00  0.000000000000000e+00  0.000000000000000e+00  0.000000000000000e+00
29  0.000000000000000e+00  0.000000000000000e+00  0.000000000000000e+00  0.000000000000000e+00  0.000000000000000e+00  0.000000000000000e+00
30  0.000000000000000e+00  0.000000000000000e+00  0.000000000000000e+00  0.000000000000000e+00  0.000000000000000e+00  0.000000000000000e+00
31  0.000000000000000e+00  0.000000000000000e+00  0.000000000000000e+00  0.000000000000000e+00  0.000000000000000e+00  0.000000000000000e+00
32  0.000000000000000e+00  0.000000000000000e+00  0.000000000000000e+00  0.000000000000000e+00  0.000000000000000e+00  0.000000000000000e+00
33  0.000000000000000e+00  0.000000000000000e+00  0.000000000000000e+00  0.000000000000000e+00  0.000000000000000e+00  0.000000000000000e+00
34  0.000000000000000e+00  0.000000000000000e+00  0.000000000000000e+00  0.000000000000000e+00  0.000000000000000e+00  0.000000000000000e+00
35  0.000000000000000e+00  0.000000000000000e+00  0.000000000000000e+00  0.000000000000000e+00  0.000000000000000e+00  0.000000000000000e+00
36  0.000000000000000e+00  0.000000000000000e+00  0.000000000000000e+00  0.000000000000000e+00  0.000000000000000e+00  0.000000000000000e+00
37  0.000000000000000e+00  0.000000000000000e+00  0.000000000000000e+00  0.000000000000000e+00  0.000000000000000e+00  0.000000000000000e+00
38  0.000000000000000e+00  0.000000000000000e+00  0.000000000000000e+00  0.000000000000000e+00  0.000000000000000e+00  0.000000000000000e+00
39  0.000000000000000e+00  0.000000000000000e+00  0.000000000000000e+00  0.000000000000000e+00  0.000000000000000e+00  0.000000000000000e+00
40  0.000000000000000e+00  0.000000000000000e+00  0.000000000000000e+00  0.000000000000000e+00  0.000000000000000e+00  0.000000000000000e+00
41  0.000000000000000e+00  0.000000000000000e+00  0.000000000000000e+00  0.000000000000000e+00  0.000000000000000e+00  0.000000000000000e+00
42  0.000000000000000e+00  0.000000000000000e+00  0.000000000000000e+00  0.000000000000000e+00  0.000000000000000e+00  0.000000000000000e+00
43  0.000000000000000e+00  0.000000000000000e+00  0.000000000000000e+00  0.000000000000000e+00  0.000000000000000e+00  0.000000000000000e+00
44  0.000000000000000e+00  0.000000000000000e+00  0.000000000000000e+00  0.000000000000000e+00  0.000000000000000e+00  0.000000000000000e+00
45  0.000000000000000e+00  0.000000000000000e+00  0.000000000000000e+00  0.000000000000000e+00  0.000000000000000e+00  0.000000000000000e+00
46  0.000000000000000e+00  0.000000000000000e+00  0.000000000000000e+00  0.000000000000000e+00  0.000000000000000e+00  0.000000000000000e+00
47  0.000000000000000e+00  0.000000000000000e+00  0.000000000000000e+00  0.000000000000000e+00  0.000000000000000e+00  0.000000000000000e+00
48  0.000000000000000e+00  0.000000000000000e+00  0.000000000000000e+00  0.000000000000000e+00  0.000000000000000e+00  0.000000000000000e+00
49  0.000000000000000e+00  0.000000000000000e+00  0.000000000000000e+00  0.000000000000000e+00  0.000000000000000e+00  0.000000000000000e+00
50  0.000000000000000e+00  0.000000000000000e+00  0.000000000000000e+00  0.000000000000000e+00  0.000000000000000e+00  0.000000000000000e+00
51  0.000000000000000e+00  0.000000000000000e+00  0.000000000000000e+00  0.000000000000000e+00  0.000000000000000e+00  0.000000000000000e+00
52  0.000000000000000e+00  0.000000000000000e+00  0.000000000000000e+00  0.000000000000000e+00  0.000000000000000e+00  0.000000000000000e+00
53  0.000000000000000e+00  0.000000000000000e+00  0.000000000000000e+00  0.000000000000000e+00  0.000000000000000e+00  0.000000000000000e+00
54  0.000000000000000e+00  0.000000000000000e+00  0.000000000000000e+00  0.000000000000000e+00  0.000000000000000e+00  0.000000000000000e+00
55  0.000000000000000e+00  0.000000000000000e+00  0.000000000000000e+00  0.000000000000000e+00  0.000000000000000e+00  0.000000000000000e+00
56  0.000000000000000e+00  0.000000000000000e+00  0.000000000000000e+00  0.000000000000000e+00  0.000000000000000e+00  0.000000000000000e+00
57  0.000000000000000e+00  0.000000000000000e+00  0.000000000000000e+00  0.000000000000000e+00  0.000000000000000e+00  0.000000000000000e+00
58  0.000000000000000e+00  0.000000000000000e+00  0.000000000000000e+00  0.000000000000000e+00  0.000000000000000e+00  0.000000000000000e+00
59  0.000000000000000e+00  0.000000000000000e+00  0.000000000000000e+00  0.000000000000000e+00  0.000000000000000e+00  0.000000000000000e+00
60  0.000000000000000e+00  0.000000000000000e+00  0.000000000000000e+00  0.000000000000000e+00  0.000000000000000e+00  0.000000000000000e+00
61  0.000000000000000e+00  0.000000000000000e+00  0.000000000000000e+00  0.000000000000000e+00  0.000000000000000e+00  0.000000000000000e+00
62  0.000000000000000e+00  0.000000000000000e+00  0.000000000000000e+00  0.000000000000000e+00  0.000000000000000e+00  0.000000000000000e+00
63  0.000000000000000e+00  0.000000000000000e+00  0.000000000000000e+00  0.000000000000000e+00  0.000000000000000e+00  0.000000000000000e+00
64  0.000000000000000e+00  0.000000000000000e+00  0.000000000000000e+00  0.000000000000000e+00  0.000000000000000e+00  0.000000000000000e+00
65  0.000000000000000e+00  0.000000000000000e+00  0.000000000000000e+00  0.000000000000000e+00  0.000000000000000e+00  0.000000000000000e+00
66  0.000000000000000e+00  0.000000000000000e+00  0.000000000000000e+00  0.000000000000000e+00  0.000000000000000e+00  0.000000000000000e+00
67  0.000000000000000e+00  0.000000000000000e+00  0.000000000000000e+00  0.000000000000000e+00  0.000000000000000e+00  0.000000000000000e+00
68  0.000000000000000e+00  0.000000000000000e+00  0.000000000000000e+00  0.000000000000000e+00  0.000000000000000e+00  0.000000000000000e+00
69  0.000000000000000e+00  0.000000000000000e+00  0.000000000000000e+00  0.000000000000000e+00  0.000000000000000e+00  0.000000000000000e+00
70  0.000000000000000e+00  0.000000000000000e+00  0.000000000000000e+00  0.000000000000000e+00  0.000000000000000e+00  0.000000000000000e+00
71  0.000000000000000e+00  0.000000000000000e+00  0.000000000000000e+00  0.000000000000000e+00  0.000000000000000e+00  0.000000000000000e+00
72  0.000000000000000e+00  0.000000000000000e+00  0.000000000000000e+00  0.000000000000000e+00  0.000000000000000e+00  0.000000000000000e+00
73  0.000000000000000e+00  0.000000000000000e+00  0.000000000000000e+00  0.000000000000000e+00  0.000000000000000e+00  0.000000000000000e+00
74  0.000000000000000e+00  0.000000000000000e+00  0.000000000000000e+00  0.000000000000000e+00  0.000000000000000e+00  0.000000000000000e+00
75  0.000000000000000e+00  0.000000000000000e+00  0.000000000000000e+00  0.000000000000000e+00  0.000000000000000e+00  0.000000000000000e+00
76  0.000000000000000e+00  0.000000000000000e+00  0.000000000000000e+00  0.000000000000000e+00  0.000000000000000e+00  0.000000000000000e+00
77  0.000000000000000e+00  0.000000000000000e+00  0.000000000000000e+00  0.000000000000000e+00  0.000000000000000e+00  0.000000000000000e+00
78  0.000000000000000e+00  0.000000000000000e+00  0.000000000000000e+00  0.000000000000000e+00  0.000000000000000e+00  0.000000000000000e+00
79  0.000000000000000e+00  0.000000000000000e+00  0.000000000000000e+00  0.000000000000000e+00  0.000000000000000e+00  0.000000000000000e+00
80  0.000000000000000e+00  0.000000000000000e+00  0.000000000000000e+00  0.000000000000000e+00  0.000000000000000e+00  0.000000000000000e+00
81  0.000000000000000e+00  0.000000000000000e+00  0.000000000000000e+00  0.000000000000000e+00  0.000000000000000e+00  0.000000000000000e+00
82  0.000000000000000e+00  0.000000000000000e+00  0.000000000000000e+00  0.000000000000000e+00  0.000000000000000e+00  0.000000000000000e+00
83  0.000000000000000e+00  0.000000000000000e+00  0.000000000000000e+00  0.000000000000000e+00  0.000000000000000e+00  0.000000000000000e+00
84  0.000000000000000e+00  0.000000000000000e+00  0.000000000000000e+00  0.000000000000000e+00  0.000000000000000e+00  0.000000000000000e+00
85  0.000000000000000e+00  0.000000000000000e+00  0.000000000000000e+00  0.000000000000000e+00  0.000000000000000e+00  0.000000000000000e+00
86  0.000000000000000e+00  0.000000000000000e+00  0.000000000000000e+00  0.000000000000000e+00  0.000000000000000e+00  0.000000000000000e+00
87  0.000000000000000e+00  0.000000000000000e+00  0.000000000000000e+00  0.000000000000000e+00  0.000000000000000e+00  0.000000000000000e+00
88  0.000000000000000e+00  0.000000000000000e+00  0.000000000000000e+00  0.000000000000000e+00  0.000000000000000e+00  0.000000000000000e+00
89  0.000000000000000e+00  0.000000000000000e+00  0.000000000000000e+00  0.000000000000000e+00  0.000000000000000e+00  0.000000000000000e+00
90  0.000000000000000e+00  0.000000000000000e+00  0.000000000000000e+00  0.000000000000000e+00  0.000000000000000e+00  0.000000000000000e+00
91  0.000000000000000e+00  0.000000000000000e+00  0.000000000000000e+00  0.000000000000000e+00  0.000000000000000e+00  0.000000000000000e+00
92  0.000000000000000e+00  0.000000000000000e+00  0.000000000000000e+00  0.000000000000000e+00  0.000000000000000e+00  0.000000000000000e+00
93  0.000000000000000e+00  0.000000000000000e+00  0.000000000000000e+00  0.000000000000000e+00  0.000000000000000e+00  0.000000000000000e+00
94  0.000000000000000e+00  0.000000000000000e+00  0.000000000000000e+00  0.000000000000000e+00  0.000000000000000e+00  0.000000000000000e+00
95  0.000000000000000e+00  0.000000000000000e+00  0.000000000000000e+00  0.000000000000000e+00  0.000000000000000e+00  0.000000000000000e+00
96  0.000000000000000e+00  0.000000000000000e+00  0.000000000000000e+00  0.000000000000000e+00  0.000000000000000e+00  0.000000000000000e+00
97  0.000000000000000e+00  0.000000000000000e+00  0.000000000000000e+00  0.000000000000000e+00  0.000000000000000e+00  0.000000000000000e+00
98  0.000000000000000e+00  0.000000000000000e+00  0.000000000000000e+00  0.000000000000000e+00  0.000000000000000e+00  0.000000000000000e+00
99  0.000000000000000e+00  0.000000000000000e+00  0.000000000000000e+00  0.000000000000000e+00  0.000000000000000e+00  0.000000000000000e+00
100  0.000000000000000e+00  0.000000000000000e+00  0.000000000000000e+00  0.000000000000000e+00  0.000000000000000e+00  0.000000000000000e+00
101  0.000000000000000e+00  0.000000000000000e+00  0.000000000000000e+00  0.000000000000000e+00  0.000000000000000e+00  0.000000000000000e+00
102  0.000000000000000e+00  0.000000000000000e+00  0.000000000000000e+00  0.000000000000000e+00  0.000000000000000e+00  0.000000000000000e+00
103  0.000000000000000e+00  0.000000000000000e+00  0.000000000000000e+00  0.000000000000000e+00  0.000000000000000e+00  0.000000000000000e+00
104  0.000000000000000e+00  0.000000000000000e+00  0.000000000000000e+00  0.000000000000000e+00  0.000000000000000e+00  0.000000000000000e+00
105  0.000000000000000e+00  0.000000000000000e+00  0.000000000000000e+00  0.000000000000000e+00  0.000000000000000e+00  0.000000000000000e+00
106  0.000000000000000e+00  0.000000000000000e+00  0.000000000000000e+00  0.000000000000000e+00  0.000000000000000e+00  0.000000000000000e+00
107  0.000000000000000e+00  0.000000000000000e+00  0.000000000000000e+00  0.000000000000000e+00  0.000000000000000e+00  0.000000000000000e+00
108  0.000000000000000e+00  0.000000000000000e+00  0.000000000000000e+00  0.000000000000000e+00  0.000000000000000e+00  0.000000000000000e+00
109  0.000000000000000e+00  0.000000000000000e+00  0.000000000000000e+00  0.000000000000000e+00  0.000000000000000e+00  0.000000000000000e+00
110  0.000000000000000e+00  0.000000000000000e+00  0.000000000000000e+00  0.000000000000000e+00  0.000000000000000e+00  0.000000000000000e+00
111  0.000000000000000e+00  0.000000000000000e+00  0.000000000000000e+00  0.000000000000000e+00  0.000000000000000e+00  0.000000000000000e+00
112  0.000000000000000e+00  0.000000000000000e+00  0.000000000000000e+00  0.000000000000000e+00  0.000000000000000e+00  0.000000000000000e+00
113  0.000000000000000e+00  0.000000000000000e+00  0.000000000000000e+00  0.000000000000000e+00  0.000000000000000e+00  0.000000000000000e+00
114  0.000000000000000e+00  0.000000000000000e+00  0.000000000000000e+00  0.000000000000000e+00  0.000000000000000e+00  0.000000000000000e+00
115  0.000000000000000e+00  0.000000000000000e+00  0.000000000000000e+00  0.000000000000000e+00  0.000000000000000e+00  0.000000000000000e+00
116  0.000000000000000e+00  0.000000000000000e+00  0.000000000000000e+00  0.000000000000000e+00  0.000000000000000e+00  0.000000000000000e+00
117  0.000000000000000e+00  0.000000000000000e+00  0.000000000000000e+00  0.000000000000000e+00  0.000000000000000e+00  0.000000000000000e+00
118  0.000000000000000e+00  0.000000000000000e+00  0.000000000000000e+00  0.000000000000000e+00  0.000000000000000e+00  0.000000000000000e+00
119  0.000000000000000e+00  0.000000000000000e+00  0.000000000000000e+00  0.000000000000000e+00  0.000000000000000e+00  0.000000000000000e+00
120  0.000000000000000e+00  0.000000000000000e+00  0.000000000000000e+00  0.000000000000000e+00  0.000000000000000e+00  0.000000000000000e+00
121  0.000000000000000e+00  0.000000000000000e+00  0.000000000000000e+00  0.000000000000000e+00  0.000000000000000e+00  0.000000000000000e+00
122  0.000000000000000e+00  0.000000000000000e+00  0.000000000000000e+00  0.000000000000000e+00  0.000000000000000e+00  0.000000000000000e+00
123  0.000000000000000e+00  0.000000000000000e+00  0.000000000000000e+00  0.000000000000000e+00  0.000000000000000e+00  0.000000000000000e+00