LAMMPS (29 Sep 2021 - Update 2)
#The sequence-specific interactions can be turned on/off choosing between seqdep/seqav
variable seqspec index seqdep

#Specify the temperature of the system (0.1 in SU is equivalent to 300K)
variable tem equal 0.1


### Salt concentration  ####
############################
#Specify the salt concentration the system (1.0 in SU is equivalent to 1M [NaCl])
variable sc   equal 0.15

#Effective charge in elementary charges
variable qeff equal 0.815


### Stacking parameters ####
############################
#Temperature-independent coefficient in stacking strength
variable xi    equal 1.3523

#Coefficient of linear temperature dependence in stacking strength
variable kappa equal 2.6717


### Hbond parameters ####
#########################
#Energy: 1.0678 (between base pairs A-T and C-G) and 0 (all other pairs)
variable eps equal 1.0678


#5.- The damp parameter. The default value is 0.03. The accelerated value is 1.0
variable tdamp    equal 0.03
variable tdampacc equal 2.5


#6.- The total number of nucleotides in the system
variable N equal 147

variable seed equal 402987

#The times
variable dumpfreq   equal 100000
variable trestart   equal 10000000

#total running time
variable runtime1 equal 1000000000
variable runtime2 equal 200000000



units lj

dimension 3

newton off

boundary  p p p

atom_style hybrid bond ellipsoid oxdna
WARNING: Write_data command requires newton on to preserve 3'->5' bond polarity (../atom_vec_oxdna.cpp:52)
WARNING: Atom style hybrid defines both, per-type and per-atom masses; both must be set, but only per-atom masses will be used (../atom_vec_hybrid.cpp:157)
atom_modify sort 0 1.0

# Pair interactions require lists of neighbours to be calculated
neighbor 2.0 bin
neigh_modify every 1 delay 0 check yes

restart ${trestart} oxDNA.equil.N${N}.Restart
restart 10000000 oxDNA.equil.N${N}.Restart
restart 10000000 oxDNA.equil.N147.Restart
#read_data val3.lammps.txt
read_restart data/oxDNA.equil.N${N}.Restart.20000000
read_restart data/oxDNA.equil.N147.Restart.20000000
Reading restart file ...
  restart file = 29 Sep 2021, LAMMPS = 29 Sep 2021
WARNING: Write_data command requires newton on to preserve 3'->5' bond polarity (../atom_vec_oxdna.cpp:52)
WARNING: Atom style hybrid defines both, per-type and per-atom masses; both must be set, but only per-atom masses will be used (../atom_vec_hybrid.cpp:157)
  restoring atom style hybrid from restart
  orthogonal box = (0.0000000 0.0000000 0.0000000) to (48.000000 48.000000 48.000000)
  1 by 1 by 1 MPI processor grid
  restoring pair style hybrid/overlay from restart
  restoring bond style oxdna2/fene from restart
  290 atoms
  284 bonds
Finding 1-2 1-3 1-4 neighbors ...
  special bond factors lj:    0        1        1       
  special bond factors coul:  0        0        0       
     2 = max # of 1-2 neighbors
     2 = max # of 1-3 neighbors
     4 = max # of 1-4 neighbors
     6 = max # of special neighbors
  special bonds CPU = 0.000 seconds
  read_restart CPU = 0.033 seconds
reset_timestep 0

set atom * mass 3.1575
Setting atom values ...
  290 settings made for mass

#Groups
group all type 1:4
290 atoms in group all


# oxDNA2 bond interactions - FENE backbone
bond_style oxdna2/fene
bond_coeff * 2.0 0.25 0.7564
special_bonds lj 0 1 1

# oxDNA2 pair interactions
pair_style hybrid/overlay oxdna2/excv oxdna2/stk oxdna2/hbond oxdna2/xstk oxdna2/coaxstk oxdna2/dh
pair_coeff * * oxdna2/excv               2.0 0.7 0.675 2.0 0.515 0.5 2.0 0.33 0.32
pair_coeff * * oxdna2/stk     ${seqspec} ${tem} ${xi} ${kappa} 6.0 0.4 0.9 0.32 0.75 1.3 0 0.8 0.9 0 0.95 0.9 0 0.95 2.0 0.65 2.0 0.65
pair_coeff * * oxdna2/stk     seqdep ${tem} ${xi} ${kappa} 6.0 0.4 0.9 0.32 0.75 1.3 0 0.8 0.9 0 0.95 0.9 0 0.95 2.0 0.65 2.0 0.65
pair_coeff * * oxdna2/stk     seqdep 0.1 ${xi} ${kappa} 6.0 0.4 0.9 0.32 0.75 1.3 0 0.8 0.9 0 0.95 0.9 0 0.95 2.0 0.65 2.0 0.65
pair_coeff * * oxdna2/stk     seqdep 0.1 1.3523 ${kappa} 6.0 0.4 0.9 0.32 0.75 1.3 0 0.8 0.9 0 0.95 0.9 0 0.95 2.0 0.65 2.0 0.65
pair_coeff * * oxdna2/stk     seqdep 0.1 1.3523 2.6717 6.0 0.4 0.9 0.32 0.75 1.3 0 0.8 0.9 0 0.95 0.9 0 0.95 2.0 0.65 2.0 0.65
pair_coeff * * oxdna2/hbond   ${seqspec} 0.0 8.0 0.4 0.75 0.34 0.7 1.5 0 0.7 1.5 0 0.7 1.5 0 0.7 0.46 3.141592653589793 0.7 4.0 1.5707963267948966 0.45 4.0 1.5707963267948966 0.45
pair_coeff * * oxdna2/hbond   seqdep 0.0 8.0 0.4 0.75 0.34 0.7 1.5 0 0.7 1.5 0 0.7 1.5 0 0.7 0.46 3.141592653589793 0.7 4.0 1.5707963267948966 0.45 4.0 1.5707963267948966 0.45
pair_coeff 1 4 oxdna2/hbond   ${seqspec} ${eps} 8.0 0.4 0.75 0.34 0.7 1.5 0 0.7 1.5 0 0.7 1.5 0 0.7 0.46 3.141592653589793 0.7 4.0 1.5707963267948966 0.45 4.0 1.5707963267948966 0.45
pair_coeff 1 4 oxdna2/hbond   seqdep ${eps} 8.0 0.4 0.75 0.34 0.7 1.5 0 0.7 1.5 0 0.7 1.5 0 0.7 0.46 3.141592653589793 0.7 4.0 1.5707963267948966 0.45 4.0 1.5707963267948966 0.45
pair_coeff 1 4 oxdna2/hbond   seqdep 1.0678 8.0 0.4 0.75 0.34 0.7 1.5 0 0.7 1.5 0 0.7 1.5 0 0.7 0.46 3.141592653589793 0.7 4.0 1.5707963267948966 0.45 4.0 1.5707963267948966 0.45
pair_coeff 2 3 oxdna2/hbond   ${seqspec} ${eps} 8.0 0.4 0.75 0.34 0.7 1.5 0 0.7 1.5 0 0.7 1.5 0 0.7 0.46 3.141592653589793 0.7 4.0 1.5707963267948966 0.45 4.0 1.5707963267948966 0.45
pair_coeff 2 3 oxdna2/hbond   seqdep ${eps} 8.0 0.4 0.75 0.34 0.7 1.5 0 0.7 1.5 0 0.7 1.5 0 0.7 0.46 3.141592653589793 0.7 4.0 1.5707963267948966 0.45 4.0 1.5707963267948966 0.45
pair_coeff 2 3 oxdna2/hbond   seqdep 1.0678 8.0 0.4 0.75 0.34 0.7 1.5 0 0.7 1.5 0 0.7 1.5 0 0.7 0.46 3.141592653589793 0.7 4.0 1.5707963267948966 0.45 4.0 1.5707963267948966 0.45
pair_coeff * * oxdna2/xstk               47.5 0.575 0.675 0.495 0.655 2.25 0.791592653589793 0.58 1.7 1.0 0.68 1.7 1.0 0.68 1.5 0 0.65 1.7 0.875 0.68 1.7 0.875 0.68
pair_coeff * * oxdna2/coaxstk            58.5 0.4 0.6 0.22 0.58 2.0 2.891592653589793 0.65 1.3 0 0.8 0.9 0 0.95 0.9 0 0.95 40.0 3.116592653589793
pair_coeff * * oxdna2/dh                 ${tem} ${sc} ${qeff}
pair_coeff * * oxdna2/dh                 0.1 ${sc} ${qeff}
pair_coeff * * oxdna2/dh                 0.1 0.15 ${qeff}
pair_coeff * * oxdna2/dh                 0.1 0.15 0.815


# NVE ensemble
fix 1 all nve/asphere
fix 2 all langevin ${tem} ${tem} ${tdamp} ${seed} angmom 10
fix 2 all langevin 0.1 ${tem} ${tdamp} ${seed} angmom 10
fix 2 all langevin 0.1 0.1 ${tdamp} ${seed} angmom 10
fix 2 all langevin 0.1 0.1 0.03 ${seed} angmom 10
fix 2 all langevin 0.1 0.1 0.03 402987 angmom 10
timestep 1e-3


#Useful commands when running in parallel
#comm_style tiled
#fix 3 all balance 10000 1.1 rcb
#comm_modify cutoff 2.65

thermo 10000
thermo_style custom  step  temp

compute erot all erotate/asphere
compute ekin all ke
compute epot all pe
variable erot equal c_erot
variable ekin equal c_ekin
variable epot equal c_epot
variable etot equal c_erot+c_ekin+c_epot
fix 4 all print ${dumpfreq} "$(step)  ekin = ${ekin} |  erot = ${erot} | epot = ${epot} | etot = ${etot}" screen no append energy_total.txt
fix 4 all print 100000 "$(step)  ekin = ${ekin} |  erot = ${erot} | epot = ${epot} | etot = ${etot}" screen no append energy_total.txt

shell mkdir data
WARNING: Shell command 'mkdir' failed with error 'File exists' (../input.cpp:1213)
shell cd data

#compute shape all property/atom shapex shapey shapez
compute quat all property/atom quatw quati quatj quatk

dump out all custom ${dumpfreq} out.data id mol type x y z ix iy iz c_quat[1] c_quat[2] c_quat[3] c_quat[4]
dump out all custom 100000 out.data id mol type x y z ix iy iz c_quat[1] c_quat[2] c_quat[3] c_quat[4]
dump_modify out sort id
dump_modify out format line "%d %d %d %.6le %.6le %.6le %d %d %d %.6le %.6le %.6le %.6le"

run ${runtime1}
run 1000000000
Neighbor list info ...
  update every 1 steps, delay 0 steps, check yes
  max neighbors/atom: 2000, page size: 100000
  master list distance cutoff = 6.2019411
  ghost atom cutoff = 6.2019411
  binsize = 3.1009705, bins = 16 16 16
  5 neighbor lists, perpetual/occasional/extra = 5 0 0
  (1) pair oxdna2/excv, perpetual
      attributes: half, newton off
      pair build: half/bin/newtoff
      stencil: full/bin/3d
      bin: standard
  (2) pair oxdna2/hbond, perpetual, copy from (1)
      attributes: half, newton off
      pair build: copy
      stencil: none
      bin: none
  (3) pair oxdna2/xstk, perpetual, copy from (1)
      attributes: half, newton off
      pair build: copy
      stencil: none
      bin: none
  (4) pair oxdna2/coaxstk, perpetual, copy from (1)
      attributes: half, newton off
      pair build: copy
      stencil: none
      bin: none
  (5) pair oxdna2/dh, perpetual, copy from (1)
      attributes: half, newton off
      pair build: copy
      stencil: none
      bin: none
Per MPI rank memory allocation (min/avg/max) = 9.783 | 9.783 | 9.783 Mbytes
Step Temp 
       0   0.10252822 
   10000  0.092471972 
   20000   0.10185404 
   30000  0.099336752 
   40000  0.096153178 
   50000   0.10328519 
   60000   0.10483201 
   70000  0.098151733 
   80000  0.098900408 
   90000  0.099398794 
  100000    0.1062156 
  110000  0.094600172 
  120000  0.094332593 
  130000  0.094077945 
  140000   0.10713543 
  150000   0.10175545 
  160000  0.096311623 
  170000  0.095775256 
  180000  0.099586481 
  190000    0.1026496 
  200000   0.10532751 
  210000  0.099595157 
  220000  0.096325794 
  230000  0.094944682 
  240000   0.10180345 
  250000  0.099442719 
  260000  0.096606338 
  270000  0.097280747 
  280000   0.10566451 
  290000  0.094967602 
  300000  0.093571919 
  310000    0.1078419 
  320000   0.10096319 
  330000   0.10398048 
  340000  0.098148256 
  350000  0.095306169 
  360000   0.10149923 
  370000  0.098641619 
  380000   0.10025896 
  390000   0.09799767 
  400000  0.099688646 
  410000   0.10132655 
  420000  0.096798018 
  430000   0.10256262 
  440000   0.10020301 
  450000  0.097342578 
  460000   0.10802223 
  470000   0.10488154 
  480000   0.10295229 
  490000    0.1077736 
  500000  0.094359008 
  510000   0.10384029 
  520000   0.10880485 
  530000  0.096916969 
  540000  0.098277216 
  550000   0.10359634 
  560000   0.10412004 
  570000  0.096078505 
  580000   0.10275439 
  590000  0.096189193 
  600000  0.099052489 
  610000   0.09940577 
  620000  0.090933586 
  630000  0.096503126 
  640000  0.099399406 
  650000  0.094548214 
  660000    0.1015823 
  670000  0.097764376 
  680000   0.10230078 
  690000   0.10127258 
  700000   0.10757109 
  710000  0.091576908 
  720000   0.10777922 
  730000  0.097293472 
  740000   0.10239704 
  750000  0.089816468 
  760000   0.10268339 
  770000  0.095529199 
  780000    0.1010467 
  790000  0.095357101 
  800000   0.10117841 
  810000  0.093693538 
  820000  0.093643739 
  830000   0.10212452 
  840000   0.10130119 
  850000   0.10284482 
  860000  0.097961593 
  870000  0.099422556 
  880000  0.094388888 
  890000  0.099670486 
  900000  0.095126888 
  910000   0.10390971 
  920000  0.096218694 
  930000   0.10105971 
  940000  0.097161842 
  950000   0.10324884 
  960000  0.095284317 
  970000   0.10000441 
  980000    0.1005556 
  990000   0.10284659 
 1000000   0.10287777 
 1010000   0.10090711 
 1020000   0.10241326 
 1030000  0.097355831 
 1040000   0.10512754 
 1050000   0.10544499 
 1060000  0.099967083 
 1070000   0.10600428 
 1080000   0.10067379 
 1090000   0.09321882 
 1100000   0.10646437 
 1110000   0.10612118 
 1120000  0.099174744 
 1130000   0.10076801 
 1140000  0.098970754 
 1150000  0.097825991 
 1160000    0.1009605 
 1170000  0.099196864 
 1180000   0.10271723 
 1190000   0.09365832 
 1200000   0.10804331 
 1210000  0.097862474 
 1220000  0.091092024 
 1230000   0.11279702 
 1240000   0.10078968 
 1250000    0.1011122 
 1260000   0.10506034 
 1270000  0.093974774 
 1280000   0.09595584 
 1290000  0.097093597 
 1300000   0.10100042 
 1310000   0.10651322 
 1320000  0.099791927 
 1330000  0.093205994 
 1340000  0.096546582 
 1350000   0.10248845 
 1360000    0.0903175 
 1370000   0.10467029 
 1380000   0.10001991 
 1390000  0.099800569 
 1400000   0.10281222 
 1410000   0.10030178 
 1420000   0.10150175 
 1430000   0.10533221 
 1440000  0.093993313 
 1450000  0.096483785 
 1460000  0.099630394 
 1470000  0.098995412 
 1480000   0.10139337 
 1490000   0.10006902 
 1500000   0.11064121 
 1510000   0.09656529 
 1520000   0.10501993 
 1530000    0.1090282 
 1540000  0.094823562 
 1550000   0.10464403 
 1560000   0.10371125 
 1570000   0.10331845 
 1580000   0.10285909 
 1590000  0.098428496 
 1600000   0.10221302 
 1610000   0.10459352 
 1620000   0.10476805 
 1630000   0.10413576 
 1640000  0.099636491 
 1650000  0.099961671 
 1660000  0.093486566 
 1670000  0.096459077 
 1680000  0.099612731 
 1690000  0.093405194 
 1700000   0.10123775 
 1710000   0.10549648 
 1720000   0.09467294 
 1730000   0.10184532 
 1740000   0.10809158 
 1750000  0.095752296 
 1760000  0.097227694 
 1770000   0.10088706 
 1780000     0.109091 
 1790000  0.097871539 
 1800000  0.093745375 
 1810000   0.10534215 
 1820000   0.10601596 
 1830000  0.098046019 
 1840000  0.095857983 
 1850000   0.10638988 
 1860000   0.10451256 
 1870000  0.099233523 
 1880000  0.099327971 
 1890000  0.096050504 
 1900000  0.099214315 
 1910000  0.096665731 
 1920000   0.10015078 
 1930000   0.10003234 
 1940000  0.099737664 
 1950000    0.1045913 
 1960000   0.09556277 
 1970000   0.10065161 
 1980000   0.10793694 
 1990000  0.099959774 
 2000000   0.10481389 
 2010000  0.094770358 
 2020000  0.099958212 
 2030000  0.096122172 
 2040000   0.10362856 
 2050000  0.097504049 
 2060000  0.098025369 
 2070000   0.10617108 
 2080000  0.099026144 
 2090000  0.095835143 
 2100000   0.10237697 
 2110000  0.098137361 
 2120000   0.10047194 
 2130000  0.099240819 
 2140000   0.10122029 
 2150000  0.093773751 
 2160000   0.10009892 
 2170000   0.10226195 
 2180000  0.097639716 
 2190000  0.091978693 
 2200000  0.097687151 
 2210000   0.09435018 
 2220000   0.10232999 
 2230000  0.099910717 
 2240000  0.094502798 
 2250000  0.099489286 
 2260000   0.10346829 
 2270000  0.094326932 
 2280000  0.096581768 
 2290000   0.10649099 
 2300000  0.096419231 
 2310000   0.10535712 
 2320000     0.102027 
 2330000   0.10267606 
 2340000  0.098141345 
 2350000   0.10027952 
 2360000   0.10332881 
 2370000  0.096420501 
 2380000  0.093330642 
 2390000   0.10521763 
 2400000  0.095370605 
 2410000   0.10250243 
 2420000  0.098965308 
 2430000   0.10301026 
 2440000   0.10236393 
 2450000   0.10152736 
 2460000   0.10440669 
 2470000   0.10436635 
 2480000  0.087931718 
 2490000   0.11082476 
 2500000   0.10111322 
 2510000   0.10433962 
 2520000  0.094468172 
 2530000    0.1040672 
 2540000   0.11141047 
 2550000  0.097099583 
 2560000  0.094963811 
 2570000  0.099269494 
 2580000   0.10779336 
 2590000   0.10519278 
 2600000   0.10579241 
 2610000  0.091745848 
 2620000   0.10380451 
 2630000   0.10328845 
 2640000   0.10572639 
 2650000  0.096628654 
 2660000   0.10276845 
 2670000  0.088630897 
 2680000   0.09827575 
 2690000   0.10688743 
 2700000   0.10041956 
 2710000  0.095776427 
 2720000  0.097711015 
 2730000   0.10094358 
 2740000   0.10458757 
 2750000   0.10582388 
 2760000   0.10371719 
 2770000   0.10458653 
 2780000  0.094901405 
 2790000  0.099514104 
 2800000   0.10052164 
 2810000  0.094408738 
 2820000   0.09903238 
 2830000  0.098385213 
 2840000   0.10697353 
 2850000  0.097002657 
 2860000  0.092031285 
 2870000   0.10009842 
 2880000  0.099786541 
 2890000  0.090626927 
 2900000   0.10980419 
 2910000    0.1000647 
 2920000   0.10140729 
 2930000   0.10401012 
 2940000  0.092159225 
 2950000   0.10286121 
 2960000  0.098857599 
 2970000  0.096227296 
 2980000   0.11214537 
 2990000    0.1012718 
 3000000  0.092383098 
 3010000    0.1039344 
 3020000   0.10501217 
 3030000   0.10934612 
 3040000   0.10620383 
 3050000  0.099532179 
 3060000   0.10459929 
 3070000    0.1023345 
 3080000  0.094439997 
 3090000   0.10049572 
 3100000  0.092070361 
 3110000   0.09630388 
 3120000   0.10050208 
 3130000  0.094080201 
 3140000    0.0998993 
 3150000   0.10524995 
 3160000   0.10159834 
 3170000   0.10151685 
 3180000  0.095741626 
 3190000   0.10816774 
 3200000   0.10086495 
 3210000  0.099151722 
 3220000  0.098080544 
 3230000  0.099422527 
 3240000  0.091712436 
 3250000   0.10475017 
 3260000  0.098500474 
 3270000   0.10344849 
 3280000  0.096415124 
 3290000  0.099643687 
 3300000  0.096578588 
 3310000   0.10037822 
 3320000  0.094348884 
 3330000  0.090174422 
 3340000  0.096373119 
 3350000  0.099368481 
 3360000   0.10467111 
 3370000   0.10523255 
 3380000   0.10010126 
 3390000  0.093748152 
 3400000   0.10290121 
 3410000  0.095523317 
 3420000  0.095357009 
 3430000   0.10158055 
 3440000   0.10887347 
 3450000   0.10388955 
 3460000  0.097232901 
 3470000  0.098168892 
 3480000  0.094237149 
 3490000  0.093374246 
 3500000  0.092362444 
 3510000  0.096490202 
 3520000  0.099236693 
 3530000  0.096714803 
 3540000    0.1057552 
 3550000  0.093152538 
 3560000   0.10827184 
 3570000    0.1085416 
 3580000  0.098274231 
 3590000    0.1009493 
 3600000   0.10357432 
 3610000  0.093730112 
 3620000  0.098435902 
 3630000  0.091279862 
 3640000   0.10111137 
 3650000   0.10037663 
 3660000  0.098248392 
 3670000   0.10605694 
 3680000   0.10039705 
 3690000  0.093707609 
 3700000  0.095656561 
 3710000   0.10193368 
 3720000   0.10029815 
 3730000   0.09468393 
 3740000   0.10024075 
 3750000   0.10529193 
 3760000   0.10009083 
 3770000  0.096786327 
 3780000  0.097665193 
 3790000    0.1030375 
 3800000   0.10598452 
 3810000  0.090016721 
 3820000   0.10633794 
 3830000  0.094275228 
 3840000  0.095355685 
 3850000   0.10450698 
 3860000   0.09232034 
 3870000   0.10223138 
 3880000   0.10118151 
 3890000   0.10533158 
 3900000   0.09712882 
 3910000   0.10661555 
 3920000   0.11312969 
 3930000  0.097104433 
 3940000  0.096784095 
 3950000  0.095529852 
 3960000   0.09518583 
 3970000   0.10293359 
 3980000   0.09933523 
 3990000  0.089693413 
 4000000    0.1025633 
 4010000   0.10537735 
 4020000  0.094270715 
 4030000  0.098020933 
 4040000  0.097515921 
 4050000   0.10759151 
 4060000  0.097018531 
 4070000   0.10220984 
 4080000   0.10491868 
 4090000   0.10502779 
 4100000  0.093494076 
 4110000  0.099477975 
 4120000    0.1032751 
 4130000   0.10214946 
 4140000  0.098139436 
 4150000  0.095046861 
 4160000   0.10392583 
 4170000  0.098316123 
 4180000  0.097318831 
 4190000   0.10526293 
 4200000   0.10122612 
 4210000   0.10416323 
 4220000   0.09132072 
 4230000  0.091224173 
 4240000  0.097520683 
 4250000  0.093933415 
 4260000   0.10299436 
 4270000   0.09463969 
 4280000   0.10045138 
 4290000  0.098177016 
 4300000   0.09368079 
 4310000   0.10337902 
 4320000   0.10327017 
 4330000   0.10016153 
 4340000  0.091381814 
 4350000  0.088521542 
 4360000  0.093624933 
 4370000  0.099473972 
 4380000   0.10869477 
 4390000  0.096800557 
 4400000  0.098475067 
 4410000   0.10873949 
 4420000    0.1002697 
 4430000   0.10013275 
 4440000   0.10121259 
 4450000  0.091398918 
 4460000  0.094162129 
 4470000   0.10921561 
 4480000  0.099629649 
 4490000  0.097581552 
 4500000  0.096584019 
 4510000  0.093846989 
 4520000   0.10411551 
 4530000  0.098970952 
 4540000   0.10150527 
 4550000   0.10540992 
 4560000  0.091863801 
 4570000  0.099161815 
 4580000  0.096027729 
 4590000   0.10010653 
 4600000  0.095782783 
 4610000   0.10201121 
 4620000   0.10876037 
 4630000    0.1055073 
 4640000  0.096237645 
 4650000    0.1039584 
 4660000   0.10114056 
 4670000   0.10117819 
 4680000  0.099987899 
 4690000  0.099628944 
 4700000   0.10590582 
 4710000   0.11392634 
 4720000   0.09594277 
 4730000  0.093828587 
 4740000  0.092857928 
 4750000   0.10757614 
 4760000   0.10045835 
 4770000  0.098864942 
 4780000  0.090495022 
 4790000  0.099210012 
 4800000  0.093219172 
 4810000   0.09563829 
 4820000   0.10578033 
 4830000   0.10636458 
 4840000  0.099700358 
 4850000   0.11602116 
 4860000  0.099507784 
 4870000  0.096160569 
 4880000   0.10594256 
 4890000  0.095132779 
 4900000   0.10826007 
 4910000  0.092319035 
 4920000   0.09958391 
 4930000   0.10414836 
 4940000  0.090908388 
 4950000   0.09948328 
 4960000   0.10753216 
 4970000   0.09916254 
 4980000  0.098507986 
 4990000  0.094846847 
 5000000  0.097486878 
 5010000  0.097270181 
 5020000   0.10126919 
 5030000   0.10333201 
 5040000  0.095659303 
 5050000  0.093953541 
 5060000   0.10265476 
 5070000   0.10110263 
 5080000  0.098689862 
 5090000   0.10157996 
 5100000   0.09350596 
 5110000   0.10700174 
 5120000   0.10590253 
 5130000   0.10498076 
 5140000  0.099804759 
 5150000   0.10233615 
 5160000   0.10942326 
 5170000    0.1011005 
 5180000  0.097324299 
 5190000  0.098522886 
 5200000  0.099936601 
 5210000  0.095527003 
 5220000  0.099752314 
 5230000    0.1045568 
 5240000   0.10727827 
 5250000    0.1018341 
 5260000  0.099767097 
 5270000   0.10162723 
 5280000  0.096785237 
 5290000   0.10209237 
 5300000   0.10787905 
 5310000  0.099144808 
 5320000  0.099594137 
 5330000   0.10214359 
 5340000   0.10202951 
 5350000  0.097548135 
 5360000   0.10072113 
 5370000  0.097202092 
 5380000   0.10540657 
 5390000  0.097754384 
 5400000   0.10497161 
 5410000   0.10446904 
 5420000   0.10041275 
 5430000  0.098667377 
 5440000   0.10077834 
 5450000  0.094075661 
 5460000   0.10298008 
 5470000  0.093444896 
 5480000   0.10291801 
 5490000   0.10324092 
 5500000   0.10312277 
 5510000    0.1012523 
 5520000  0.095095022 
 5530000   0.10543057 
 5540000   0.09871998 
 5550000  0.097301182 
 5560000  0.088573748 
 5570000  0.099234321 
 5580000  0.092901499 
 5590000  0.093552938 
 5600000   0.10369204 
 5610000  0.096946441 
 5620000   0.10094255 
 5630000  0.091624729 
 5640000  0.098207109 
 5650000   0.10941587 
 5660000   0.10617858 
 5670000   0.10053452 
 5680000   0.10101946 
 5690000  0.097706507 
 5700000   0.10325979 
 5710000   0.11035268 
 5720000   0.10696335 
 5730000   0.09976459 
 5740000  0.094977968 
 5750000  0.098297471 
 5760000   0.11424629 
 5770000  0.098840233 
 5780000  0.097712995 
 5790000  0.097995244 
 5800000  0.091700497 
 5810000   0.10966521 
 5820000   0.10041935 
 5830000  0.099893681 
 5840000  0.089644528 
 5850000  0.096460026 
 5860000   0.10326607 
 5870000  0.098294928 
 5880000  0.099985443 
 5890000   0.10141371 
 5900000  0.099988428 
 5910000    0.1040316 
 5920000  0.097712335 
 5930000   0.10609035 
 5940000  0.094202311 
 5950000  0.092877546 
 5960000  0.099871395 
 5970000   0.10001852 
 5980000   0.10782008 
 5990000   0.10266722 
 6000000  0.096485456 
 6010000  0.099511477 
 6020000  0.093659788 
 6030000   0.10183393 
 6040000  0.099716829 
 6050000   0.10065308 
 6060000   0.10168095 
 6070000  0.096843875 
 6080000   0.11545087 
 6090000   0.10607541 
 6100000   0.10494469 
 6110000  0.092508758 
 6120000   0.10269827 
 6130000  0.096112549 
 6140000   0.10008134 
 6150000   0.10315955 
 6160000  0.097543258 
 6170000   0.10182631 
 6180000   0.10075825 
 6190000  0.099201241 
 6200000  0.097724445 
 6210000   0.10371418 
 6220000   0.10816647 
 6230000  0.098983007 
 6240000  0.098880708 
 6250000  0.099641084 
 6260000  0.097114205 
 6270000  0.096023843 
 6280000   0.10186241 
 6290000   0.09440958 
 6300000   0.10367464 
 6310000   0.10250732 
 6320000    0.1026998 
 6330000   0.10264818 
 6340000  0.099045161 
 6350000   0.10207627 
 6360000  0.091548189 
 6370000  0.098744681 
 6380000   0.10255466 
 6390000   0.11036026 
 6400000  0.094596615 
 6410000   0.10150593 
 6420000   0.10149365 
 6430000  0.097176414 
 6440000   0.10294968 
 6450000    0.1036223 
 6460000  0.096234463 
 6470000  0.095022789 
 6480000  0.096589149 
 6490000  0.094744008 
 6500000  0.096883947 
 6510000  0.099924844 
 6520000  0.096641447 
 6530000   0.10151602 
 6540000    0.1017651 
 6550000   0.10239987 
 6560000  0.095613758 
 6570000   0.10683153 
 6580000  0.099490891 
 6590000   0.10796528 
 6600000   0.10868261 
 6610000  0.096732433 
 6620000   0.10711731 
 6630000   0.10262645 
 6640000  0.099825003 
 6650000  0.094317426 
 6660000   0.10049109 
 6670000   0.10109041 
 6680000  0.098141985 
 6690000   0.10472055 
 6700000   0.10103062 
 6710000  0.095589517 
 6720000   0.10220231 
 6730000   0.10107217 
 6740000   0.10298854 
 6750000  0.096174742 
 6760000  0.095353445 
 6770000  0.092215966 
 6780000  0.096230777 
 6790000   0.10413274 
 6800000   0.10110147 
 6810000   0.10642623 
 6820000  0.097871112 
 6830000  0.099155961 
 6840000   0.10532154 
 6850000   0.10448502 
 6860000   0.10507301 
 6870000   0.10705328 
 6880000  0.095642901 
 6890000  0.093971507 
 6900000  0.099379984 
 6910000   0.10637101 
 6920000  0.099313979 
 6930000   0.10454752 
 6940000  0.097519997 
 6950000    0.1042892 
 6960000   0.10129896 
 6970000  0.097816945 
 6980000   0.10155338 
 6990000   0.10041058 
 7000000   0.09629396 
 7010000   0.10553082 
 7020000  0.097234225 
 7030000   0.10454813 
 7040000  0.097674863 
 7050000   0.10005385 
 7060000   0.10149972 
 7070000  0.098108123 
 7080000  0.099579103 
 7090000    0.1015754 
 7100000  0.097825193 
 7110000   0.10024727 
 7120000  0.098408299 
 7130000  0.098420895 
 7140000  0.095158459 
 7150000  0.095637935 
 7160000   0.10172692 
 7170000  0.097087399 
 7180000   0.10105787 
 7190000  0.097554708 
 7200000  0.096322621 
 7210000  0.096719767 
 7220000   0.10734054 
 7230000  0.097444397 
 7240000   0.10570288 
 7250000  0.098677641 
 7260000    0.1013981 
 7270000   0.10400367 
 7280000    0.1070108 
 7290000  0.099670363 
 7300000   0.10452952 
 7310000   0.10116743 
 7320000   0.10648464 
 7330000  0.097237492 
 7340000   0.10398044 
 7350000   0.10205868 
 7360000    0.0996667 
 7370000   0.10127031 
 7380000  0.097455577 
 7390000   0.09442586 
 7400000    0.1025314 
 7410000  0.096201555 
 7420000   0.10384569 
 7430000   0.10280782 
 7440000  0.098454086 
 7450000  0.092500973 
 7460000  0.096142045 
 7470000  0.098399189 
 7480000  0.098526588 
 7490000    0.1120504 
 7500000   0.10626365 
 7510000   0.10262934 
 7520000   0.10005172 
 7530000   0.10292717 
 7540000   0.10413866 
 7550000   0.10132282 
 7560000   0.10195618 
 7570000   0.10202158 
 7580000   0.09730527 
 7590000   0.10445782 
 7600000   0.10917267 
 7610000   0.10112391 
 7620000    0.1036069 
 7630000  0.093229103 
 7640000  0.098563944 
 7650000   0.10508989 
 7660000   0.10398582 
 7670000  0.095463889 
 7680000  0.096218737 
 7690000  0.091998272 
 7700000    0.0983816 
 7710000   0.10266541 
 7720000  0.098592009 
 7730000  0.097276754 
 7740000  0.096938268 
 7750000   0.10286084 
 7760000   0.10666485 
 7770000  0.095393351 
 7780000  0.092482542 
 7790000  0.098177708 
 7800000  0.098305476 
 7810000  0.094403633 
 7820000   0.10220565 
 7830000   0.10260368 
 7840000   0.10648041 
 7850000   0.10089184 
 7860000  0.098363007 
 7870000   0.10428238 
 7880000   0.10517764 
 7890000   0.10804769 
 7900000  0.098127012 
 7910000  0.095907023 
 7920000   0.10534213 
 7930000   0.10249077 
 7940000  0.098231512 
 7950000  0.096561245 
 7960000  0.098028037 
 7970000   0.10306936 
 7980000  0.096952592 
 7990000   0.10202576 
 8000000  0.096631294 
 8010000   0.10460847 
 8020000   0.10179554 
 8030000   0.10460761 
 8040000   0.10604573 
 8050000  0.097833348 
 8060000   0.10071447 
 8070000  0.099895719 
 8080000   0.10300386 
 8090000  0.095013702 
 8100000   0.10742631 
 8110000   0.09999256 
 8120000   0.10967001 
 8130000  0.094370934 
 8140000  0.094477475 
 8150000  0.099816086 
 8160000  0.097597969 
 8170000  0.092888654 
 8180000   0.10239958 
 8190000  0.099320249 
 8200000   0.09643227 
 8210000   0.10085799 
 8220000   0.10222541 
 8230000   0.10013433 
 8240000   0.10152717 
 8250000  0.098568084 
 8260000  0.097170166 
 8270000   0.11048197 
 8280000   0.10787031 
 8290000    0.1005132 
 8300000  0.096371114 
 8310000  0.096374197 
 8320000   0.09354388 
 8330000   0.10009998 
 8340000  0.096041921 
 8350000   0.11605348 
 8360000  0.098189764 
 8370000  0.097029692 
 8380000  0.098482818 
 8390000  0.091507238 
 8400000    0.1128355 
 8410000   0.10238932 
 8420000   0.10457972 
 8430000   0.10321018 
 8440000   0.10268059 
 8450000   0.10611325 
 8460000   0.10672271 
 8470000   0.10023516 
 8480000   0.10282983 
 8490000   0.10323755 
 8500000   0.10096746 
 8510000  0.097815307 
 8520000   0.10832741 
 8530000  0.099088816 
 8540000  0.093723748 
 8550000  0.099702325 
 8560000   0.10077295 
 8570000  0.098829093 
 8580000  0.098633855 
 8590000  0.094136923 
 8600000  0.096162675 
 8610000   0.10552117 
 8620000   0.10329733 
 8630000  0.099031114 
 8640000   0.10380658 
 8650000   0.10223119 
 8660000   0.09289569 
 8670000    0.1092855 
 8680000   0.10372901 
 8690000   0.10850826 
 8700000   0.10135827 
 8710000      0.10659 
 8720000    0.1033912 
 8730000  0.095371349 
 8740000  0.092825976 
 8750000     0.096254 
 8760000  0.092894916 
 8770000   0.10315555 
 8780000  0.090669504 
 8790000  0.098806608 
 8800000   0.10185606 
 8810000   0.10104278 
 8820000  0.097631146 
 8830000    0.1143234 
 8840000   0.10478787 
 8850000   0.11060607 
 8860000  0.096421729 
 8870000  0.096393499 
 8880000  0.099771798 
 8890000   0.10954027 
 8900000   0.10724723 
 8910000   0.09902961 
 8920000  0.094952319 
 8930000  0.098734597 
 8940000   0.10474291 
 8950000  0.097214864 
 8960000   0.10271554 
 8970000  0.094691292 
 8980000   0.10164991 
 8990000  0.092890124 
 9000000   0.10411781 
 9010000  0.092684943 
 9020000  0.097439488 
 9030000  0.092099708 
 9040000  0.097026278 
 9050000   0.10680526 
 9060000  0.097527853 
 9070000  0.096626125 
 9080000  0.093033503 
 9090000   0.10886855 
 9100000    0.1013594 
 9110000   0.10972833 
 9120000   0.10369439 
 9130000  0.097317713 
 9140000   0.10084616 
 9150000   0.10374675 
 9160000  0.099307472 
 9170000   0.10191666 
 9180000   0.10182407 
 9190000  0.098625445 
 9200000  0.094408882 
 9210000  0.099043884 
 9220000   0.10544126 
 9230000  0.096032941 
 9240000   0.10326277 
 9250000  0.094543645 
 9260000  0.092809335 
 9270000  0.097101692 
 9280000  0.099063738 
 9290000    0.1044745 
 9300000   0.10691471 
 9310000  0.094361445 
 9320000   0.10234965 
 9330000   0.10248801 
 9340000    0.1084134 
 9350000  0.093858945 
 9360000  0.094855671 
 9370000   0.10201414 
 9380000   0.11111274 
 9390000  0.096154581 
 9400000   0.10032662 
 9410000   0.09990361 
 9420000   0.10045671 
 9430000     0.108372 
 9440000  0.097396497 
 9450000  0.094492092 
 9460000  0.094204024 
 9470000  0.099002729 
 9480000  0.099131643 
 9490000  0.091887969 
 9500000   0.10187722 
 9510000   0.10800973 
 9520000   0.09367406 
 9530000   0.09551115 
 9540000  0.094987033 
 9550000    0.1015896 
 9560000  0.095402706 
 9570000  0.092615449 
 9580000   0.10112794 
 9590000   0.09016878 
 9600000  0.099060009 
 9610000   0.10117573 
 9620000   0.10071399 
 9630000  0.098841263 
 9640000   0.10365937 
 9650000   0.10530672 
 9660000   0.10006646 
 9670000  0.091424408 
 9680000   0.10057009 
 9690000   0.10027452 
 9700000   0.09779758 
 9710000    0.1000722 
 9720000  0.094452533 
 9730000   0.10065216 
 9740000  0.096622211 
 9750000  0.098327403 
 9760000   0.10242867 
 9770000  0.099855685 
 9780000  0.099595975 
 9790000   0.10174051 
 9800000  0.097277371 
 9810000  0.099289566 
 9820000   0.10089794 
 9830000    0.1004336 
 9840000   0.10164622 
 9850000   0.10056659 
 9860000  0.096337638 
 9870000   0.10859554 
 9880000   0.10448634 
 9890000   0.10095408 
 9900000  0.098182881 
 9910000  0.095145105 
 9920000   0.10061816 
 9930000   0.09443189 
 9940000   0.10120786 
 9950000  0.087118885 
 9960000  0.098120111 
 9970000   0.10460529 
 9980000   0.10263011 
 9990000   0.10186473 
10000000  0.097654561 
10010000  0.095479893 
10020000  0.097897415 
10030000   0.10018622 
10040000  0.099134118 
10050000  0.095844003 
10060000  0.098917994 
10070000   0.10645912 
10080000  0.094883444 
10090000   0.11082364 
10100000  0.093286205 
10110000  0.093457234 
10120000   0.10638081 
10130000   0.10210521 
10140000  0.092296279 
10150000   0.10351872 
10160000   0.11202465 
10170000  0.099290459 
10180000   0.10967604 
10190000    0.0959818 
10200000  0.097574607 
10210000   0.10168621 
10220000   0.10097306 
10230000   0.09821361 
10240000  0.099641524 
10250000   0.10160751 
10260000   0.10038823 
10270000   0.10152099 
10280000  0.099001483 
10290000  0.099904752 
10300000  0.088300858 
10310000  0.099536261 
10320000   0.10406146 
10330000  0.095540727 
10340000  0.096552046 
10350000  0.096258909 
10360000   0.10529264 
10370000  0.096571382 
10380000   0.10644047 
10390000   0.10265074 
10400000  0.097868592 
10410000  0.098102353 
10420000  0.095330422 
10430000    0.1014542 
10440000   0.11359225 
10450000   0.10202214 
10460000     0.102891 
10470000  0.099381588 
10480000   0.10094911 
10490000   0.10524918 
10500000  0.098158019 
10510000   0.10222484 
10520000    0.1042904 
10530000   0.10025162 
10540000  0.099503967 
10550000   0.10058289 
10560000  0.096193213 
10570000  0.099271171 
10580000  0.095475951 
10590000   0.10506198 
10600000  0.093378885 
10610000   0.10416844 
10620000   0.09929731 
10630000   0.10737407 
10640000   0.11416473 
10650000  0.096872555 
10660000   0.10280814 
10670000   0.10419989 
10680000   0.10603084 
10690000  0.092064898 
10700000   0.10633213 
10710000   0.10183669 
10720000   0.10688442 
10730000    0.1022093 
10740000   0.10109231 
10750000   0.10626696 
10760000   0.10542646 
10770000    0.1044174 
10780000    0.1029409 
10790000   0.10714825 
10800000  0.097283952 
10810000   0.10846497 
10820000  0.099447334 
10830000  0.099348865 
10840000    0.1000062 
10850000  0.099638987 
10860000   0.10072402 
10870000   0.10718252 
10880000    0.1033916 
10890000  0.099444408 
10900000   0.10434848 
10910000   0.10555317 
10920000   0.10243497 
10930000   0.10690856 
10940000  0.095706018 
10950000   0.10281147 
10960000   0.10882652 
10970000  0.094786027 
10980000   0.10153409 
10990000   0.10256399 
11000000  0.097021335 
11010000  0.097176341 
11020000   0.10551575 
11030000    0.1006757 
11040000   0.10224885 
11050000  0.098756642 
11060000   0.10137135 
11070000   0.11201849 
11080000   0.10269498 
11090000   0.10687631 
11100000  0.095643704 
11110000    0.1058341 
11120000   0.09979577 
11130000   0.10161699 
11140000  0.098663759 
11150000  0.099289516 
11160000  0.095057627 
11170000  0.099457803 
11180000   0.10187107 
11190000  0.099175775 
11200000  0.099179866 
11210000  0.092649834 
11220000   0.11148798 
11230000   0.09887205 
11240000   0.10371956 
11250000  0.094256348 
11260000   0.11294534 
11270000  0.098624335 
11280000   0.10423452 
11290000  0.099471687 
11300000   0.10651482 
11310000  0.099867538 
11320000   0.10292341 
11330000  0.097969868 
11340000   0.10199964 
11350000   0.10226646 
11360000   0.10632724 
11370000   0.10151908 
11380000  0.096962567 
11390000  0.093721933 
11400000   0.10185995 
11410000   0.10094116 
11420000  0.099075749 
11430000   0.09714432 
11440000    0.1011287 
11450000   0.10266108 
11460000   0.10833761 
11470000  0.096052712 
11480000  0.091879748 
11490000   0.10307586 
11500000   0.10073416 
11510000   0.10430801 
11520000    0.1006941 
11530000  0.099508003 
11540000  0.096774314 
11550000   0.10455911 
11560000    0.1015914 
11570000  0.099088768 
11580000  0.095288633 
11590000   0.08972352 
11600000   0.10919415 
11610000  0.095564177 
11620000  0.092874342 
11630000   0.10513397 
11640000  0.095594957 
11650000  0.096929088 
11660000   0.10182778 
11670000  0.095295293 
11680000  0.090917147 
11690000   0.10769083 
11700000   0.10199761 
11710000   0.10477703 
11720000   0.10736085 
11730000   0.10371151 
11740000  0.093459162 
11750000  0.096843272 
11760000  0.097632434 
11770000  0.091261324 
11780000   0.10185997 
11790000  0.099070227 
11800000   0.09951651 
11810000  0.098746599 
11820000   0.10525598 
11830000  0.099029321 
11840000   0.10416387 
11850000  0.099886997 
11860000  0.093737483 
11870000    0.1032332 
11880000   0.10744137 
11890000  0.098116121 
11900000  0.089466208 
11910000   0.09620541 
11920000  0.099317638 
11930000  0.094276675 
11940000   0.10176137 
11950000  0.099189291 
11960000  0.095044517 
11970000   0.10002024 
11980000   0.10688093 
11990000  0.095101312 
12000000   0.10158583 
12010000   0.10922784 
12020000  0.096959164 
12030000   0.10268358 
12040000  0.091509219 
12050000  0.092551638 
12060000    0.1018004 
12070000   0.10214333 
12080000   0.10159786 
12090000  0.095970089 
12100000  0.094577459 
12110000    0.1051141 
12120000   0.10323406 
12130000   0.10847009 
12140000   0.10134615 
12150000   0.10042548 
12160000   0.10244238 
12170000   0.10900437 
12180000   0.09301904 
12190000   0.10556004 
12200000   0.09846824 
12210000  0.095970598 
12220000  0.099790649 
12230000   0.10174128 
12240000  0.097888133 
12250000   0.10454083 
12260000  0.090391184 
12270000   0.10100963 
12280000  0.099829824 
12290000   0.10201115 
12300000  0.094033322 
12310000    0.1061598 
12320000   0.10439082 
12330000  0.097811856 
12340000   0.10234944 
12350000  0.095898009 
12360000   0.10910487 
12370000   0.10439134 
12380000  0.095515353 
12390000  0.097272184 
12400000   0.10137376 
12410000   0.10105672 
12420000   0.10299779 
12430000  0.097184821 
12440000   0.11114973 
12450000   0.10179905 
12460000  0.097876347 
12470000  0.093007904 
12480000   0.10511248 
12490000   0.10120662 
12500000   0.08927934 
12510000  0.097275291 
12520000   0.10017407 
12530000   0.09904634 
12540000   0.10449306 
12550000   0.10125202 
12560000  0.093491159 
12570000   0.10144323 
12580000   0.10340348 
12590000  0.098240903 
12600000  0.093201826 
12610000   0.09714087 
12620000   0.10472283 
12630000   0.09560076 
12640000   0.10616221 
12650000  0.098731067 
12660000  0.092545999 
12670000    0.1037631 
12680000  0.095407727 
12690000  0.095246531 
12700000  0.093400406 
12710000    0.1037182 
12720000  0.098986995 
12730000  0.093687274 
12740000   0.10291367 
12750000  0.097139137 
12760000  0.097671465 
12770000  0.098216753 
12780000  0.097554925 
12790000   0.10760002 
12800000   0.10686073 
12810000   0.10055043 
12820000   0.10489445 
12830000   0.10538965 
12840000  0.093438393 
12850000   0.11328072 
12860000   0.10022398 
12870000   0.10093585 
12880000  0.096707786 
12890000   0.10492072 
12900000   0.10581803 
12910000  0.099288853 
12920000  0.090991631 
12930000   0.09999806 
12940000   0.10183247 
12950000   0.10225214 
12960000   0.10010203 
12970000  0.099747289 
12980000  0.093253546 
12990000    0.1061977 
13000000   0.10112546 
13010000   0.10482875 
13020000   0.10280489 
13030000   0.10087956 
13040000   0.10475918 
13050000   0.09653056 
13060000  0.098848809 
13070000  0.095920298 
13080000  0.092196749 
13090000  0.097357712 
13100000   0.10296438 
13110000   0.10122733 
13120000   0.10380001 
13130000   0.11075685 
13140000  0.096217878 
13150000   0.10219889 
13160000  0.099813498 
13170000   0.10156909 
13180000   0.10081303 
13190000  0.099062294 
13200000  0.093220142 
13210000  0.099951927 
13220000   0.10334824 
13230000  0.099874636 
13240000  0.095101756 
13250000  0.094507282 
13260000  0.096042949 
13270000   0.10136596 
13280000   0.10560684 
13290000   0.10155566 
13300000  0.099930214 
13310000   0.10183965 
13320000  0.098118418 
13330000   0.09879573 
13340000   0.10187183 
13350000  0.095523852 
13360000  0.096560221 
13370000   0.10300575 
13380000   0.10142012 
13390000   0.10387793 
13400000  0.097480189 
13410000    0.1017255 
13420000  0.096347962 
13430000   0.10374752 
13440000    0.1043509 
13450000   0.10275325 
13460000  0.099037949 
13470000  0.097398549 
13480000  0.099068612 
13490000  0.097309937 
13500000  0.096773101 
13510000  0.098711489 
13520000  0.092187385 
13530000   0.10210577 
13540000  0.094450009 
13550000   0.10445096 
13560000  0.096991061 
13570000  0.094371416 
13580000   0.10218167 
13590000   0.10816663 
13600000   0.10161138 
13610000  0.095220123 
13620000  0.097007955 
13630000  0.099209012 
13640000   0.10455977 
13650000   0.09996359 
13660000  0.096902879 
13670000  0.096710708 
13680000   0.10448946 
13690000  0.098928555 
13700000  0.097477507 
13710000  0.098455998 
13720000  0.099154075 
13730000  0.096346195 
13740000   0.10049673 
13750000   0.10436695 
13760000   0.10080987 
13770000  0.097074173 
13780000    0.1055594 
13790000   0.10624764 
13800000   0.10037273 
13810000  0.098526821 
13820000   0.10387543 
13830000  0.097010982 
13840000  0.095956221 
13850000  0.098880701 
13860000   0.10031299 
13870000   0.10110126 
13880000   0.10265372 
13890000   0.10002882 
13900000    0.1014714 
13910000  0.090111425 
13920000   0.10910826 
13930000  0.096955175 
13940000   0.10102194 
13950000  0.095793984 
13960000  0.095928286 
13970000   0.10430333 
13980000   0.10009045 
13990000   0.10583014 
14000000   0.10279305 
14010000   0.09467451 
14020000   0.10634754 
14030000  0.098739797 
14040000   0.10006697 
14050000   0.10269043 
14060000  0.098265455 
14070000   0.10622132 
14080000   0.09816048 
14090000  0.099479881 
14100000  0.089809653 
14110000  0.099554214 
14120000   0.10692234 
14130000  0.098330274 
14140000   0.10008452 
14150000   0.10475805 
14160000   0.10247069 
14170000  0.097572075 
14180000   0.10214051 
14190000   0.10453508 
14200000   0.10653981 
14210000  0.095212216 
14220000  0.099537832 
14230000  0.094624231 
14240000  0.095650874 
14250000  0.094742923 
14260000   0.10723463 
14270000  0.098873765 
14280000    0.1046079 
14290000    0.1081379 
14300000   0.10367954 
14310000  0.095933035 
14320000  0.097691801 
14330000   0.10442334 
14340000   0.10408133 
14350000   0.10225768 
14360000  0.090648019 
14370000     0.101663 
14380000   0.10240414 
14390000  0.098528345 
14400000   0.10873271 
14410000  0.099298336 
14420000  0.095909065 
14430000   0.10137752 
14440000   0.10047716 
14450000  0.095128155 
14460000  0.098080161 
14470000   0.10405938 
14480000    0.1016351 
14490000   0.10211341 
14500000  0.099291143 
14510000  0.099453501 
14520000   0.10261724 
14530000  0.098907532 
14540000  0.094746058 
14550000  0.096614884 
14560000   0.10070332 
14570000  0.097365566 
14580000   0.10881834 
14590000  0.099562301 
14600000  0.099862275 
14610000    0.1037768 
14620000  0.097519724 
14630000  0.095477494 
14640000  0.098563044 
14650000    0.0933583 
14660000   0.10270524 
14670000  0.098832774 
14680000   0.10408086 
14690000   0.09551775 
14700000  0.098292317 
14710000  0.099610769 
14720000  0.097079019 
14730000   0.10569689 
14740000  0.097701949 
14750000  0.095476105 
14760000    0.1006917 
14770000   0.10060805 
14780000  0.099207756 
14790000  0.092229872 
14800000  0.090868646 
14810000  0.097010238 
14820000   0.11273473 
14830000  0.090142111 
14840000  0.092421869 
14850000  0.093773117 
14860000  0.094807538 
14870000  0.096990551 
14880000   0.10065992 
14890000   0.09999012 
14900000  0.096302103 
14910000  0.095030544 
14920000  0.098087163 
14930000  0.094147682 
14940000   0.10660627 
14950000  0.096380449 
14960000  0.095740787 
14970000  0.096361087 
14980000  0.093294577 
14990000   0.10091428 
15000000   0.10997187 
15010000   0.10799707 
15020000   0.10226943 
15030000    0.1045144 
15040000   0.10282357 
15050000   0.10459578 
15060000  0.093564657 
15070000  0.099251173 
15080000   0.10121287 
15090000   0.10144077 
15100000   0.10091208 
15110000   0.10574079 
15120000   0.10110826 
15130000   0.10618873 
15140000   0.10071414 
15150000   0.10050006 
15160000  0.098995827 
15170000   0.10273232 
15180000   0.10155057 
15190000  0.093381958 
15200000  0.097072946 
15210000   0.10332064 
15220000   0.10166962 
15230000   0.10315941 
15240000  0.093209597 
15250000   0.09301852 
15260000   0.10094526 
15270000  0.093241141 
15280000  0.098614319 
15290000    0.1056625 
15300000   0.10675342 
15310000   0.10230446 
15320000   0.10125351 
15330000  0.098624627 
15340000   0.09671877 
15350000   0.10115663 
15360000   0.10060723 
15370000  0.094178198 
15380000   0.10190735 
15390000   0.10873327 
15400000  0.099900514 
15410000  0.096643055 
15420000  0.096113248 
15430000   0.09722218 
15440000   0.10023617 
15450000  0.096279053 
15460000   0.10565071 
15470000   0.11137983 
15480000  0.097283112 
15490000    0.1066271 
15500000   0.10579841 
15510000   0.10294252 
15520000   0.10396741 
15530000  0.095911135 
15540000   0.10432342 
15550000  0.095596139 
15560000   0.10363103 
15570000  0.096928242 
15580000   0.10175055 
15590000   0.10389323 
15600000    0.0954169 
15610000   0.10078893 
15620000  0.098842446 
15630000  0.098008402 
15640000    0.1034866 
15650000   0.10142035 
15660000  0.098589236 
15670000  0.093254496 
15680000  0.097505902 
15690000  0.095582758 
15700000   0.10203889 
15710000  0.095346911 
15720000  0.094428787 
15730000  0.095364321 
15740000   0.10274957 
15750000  0.097983295 
15760000   0.10056885 
15770000   0.10080328 
15780000   0.10005134 
15790000  0.099006724 
15800000    0.1010489 
15810000  0.099922785 
15820000  0.098839159 
15830000   0.11094577 
15840000  0.096368067 
15850000  0.099166293 
15860000   0.10380391 
15870000   0.10178291 
15880000  0.094433758 
15890000   0.10628169 
15900000   0.10628892 
15910000  0.097511753 
15920000   0.10302784 
15930000   0.10428922 
15940000   0.09433598 
15950000   0.10305392 
15960000  0.097997196 
15970000   0.10460549 
15980000  0.098914723 
15990000   0.10283663 
16000000   0.10458289 
16010000   0.10337245 
16020000   0.10296701 
16030000   0.10773542 
16040000  0.093100605 
16050000   0.10157869 
16060000  0.096334858 
16070000   0.10270487 
16080000  0.098878915 
16090000   0.10654873 
16100000  0.094911267 
16110000   0.10977393 
16120000    0.1050264 
16130000  0.092197122 
16140000  0.090273934 
16150000   0.09484373 
16160000   0.09847465 
16170000   0.10075855 
16180000   0.11283539 
16190000   0.10378618 
16200000   0.10425801 
16210000  0.095118066 
16220000  0.099556877 
16230000  0.096772201 
16240000  0.098928219 
16250000   0.10316138 
16260000   0.10587855 
16270000   0.10178954 
16280000   0.10345674 
16290000   0.10180199 
16300000    0.1069264 
16310000   0.10051397 
16320000  0.099626927 
16330000  0.092747467 
16340000   0.09892243 
16350000   0.10214269 
16360000  0.093520475 
16370000   0.10279347 
16380000   0.10251678 
16390000    0.1020248 
16400000   0.10129617 
16410000  0.098115784 
16420000   0.10057722 
16430000   0.11025872 
16440000   0.10579307 
16450000   0.10226207 
16460000   0.10133136 
16470000   0.09904634 
16480000   0.10474426 
16490000   0.11032581 
16500000   0.10603725 
16510000   0.10607381 
16520000  0.097474056 
16530000   0.10746543 
16540000  0.099636431 
16550000   0.10123578 
16560000   0.10568123 
16570000  0.097174165 
16580000   0.10504313 
16590000   0.10027553 
16600000  0.099502949 
16610000   0.10233192 
16620000   0.10493265 
16630000  0.099828817 
16640000   0.09832873 
16650000  0.099067769 
16660000  0.093714967 
16670000  0.099452141 
16680000   0.10168025 
16690000  0.093139826 
16700000   0.10001698 
16710000   0.10319921 
16720000   0.10091644 
16730000  0.097578835 
16740000   0.10508662 
16750000    0.1030549 
16760000   0.09434169 
16770000  0.090898104 
16780000  0.096921555 
16790000   0.10504803 
16800000   0.10831859 
16810000  0.094561835 
16820000   0.11275062 
16830000   0.10684005 
16840000   0.10309691 
16850000   0.10111844 
16860000  0.099430614 
16870000   0.10158794 
16880000   0.10029366 
16890000   0.10424367 
16900000  0.097917731 
16910000  0.099811989 
16920000   0.10079735 
16930000   0.10956233 
16940000   0.10020568 
16950000  0.094766543 
16960000   0.10009731 
16970000   0.10739843 
16980000  0.097890076 
16990000  0.097130919 
17000000   0.10284211 
17010000   0.10815993 
17020000   0.10828192 
17030000  0.099206858 
17040000   0.10471794 
17050000  0.094583833 
17060000   0.11004578 
17070000   0.09218789 
17080000   0.10255453 
17090000  0.093406599 
17100000   0.10765799 
17110000   0.10097456 
17120000  0.094292172 
17130000   0.10844486 
17140000   0.10577243 
17150000  0.096643098 
17160000   0.10185988 
17170000  0.095785918 
17180000  0.099975004 
17190000   0.10660714 
17200000   0.10401017 
17210000  0.097896038 
17220000   0.10231134 
17230000   0.10094679 
17240000    0.1013438 
17250000  0.097918048 
17260000   0.10218151 
17270000  0.098740234 
17280000   0.10264654 
17290000   0.09128869 
17300000  0.098745446 
17310000   0.10068879 
17320000   0.10092208 
17330000    0.1082883 
17340000  0.093935235 
17350000   0.09899726 
17360000  0.094785217 
17370000   0.10639345 
17380000  0.096975907 
17390000   0.10454385 
17400000   0.10058844 
17410000   0.10222734 
17420000  0.093847178 
17430000    0.1043619 
17440000  0.088776235 
17450000   0.10214209 
17460000  0.093739797 
17470000   0.10117225 
17480000  0.093430875 
17490000   0.10764665 
17500000  0.097379551 
17510000    0.1050925 
17520000  0.097555139 
17530000  0.094706067 
17540000  0.096682133 
17550000  0.090409453 
17560000   0.10342137 
17570000   0.10173823 
17580000   0.10416675 
17590000   0.10537959 
17600000   0.10859761 
17610000   0.10375652 
17620000   0.10277987 
17630000  0.099475087 
17640000   0.10255031 
17650000  0.099828919 
17660000   0.10090891 
17670000  0.098857998 
17680000   0.10475613 
17690000    0.1000668 
17700000  0.095829176 
17710000   0.11060427 
17720000   0.09323291 
17730000  0.094039197 
17740000   0.10112447 
17750000   0.10126037 
17760000   0.10459066 
17770000   0.10151232 
17780000  0.096514182 
17790000   0.10161117 
17800000   0.10237368 
17810000   0.10321015 
17820000   0.10489268 
17830000  0.095611705 
17840000    0.1021082 
17850000    0.1071195 
17860000  0.089843541 
17870000  0.096735617 
17880000  0.098523139 
17890000   0.10627147 
17900000  0.091732423 
17910000  0.096038047 
17920000   0.10019038 
17930000   0.10302019 
17940000   0.09484358 
17950000  0.099088196 
17960000   0.10072335 
17970000  0.093192962 
17980000  0.099070331 
17990000   0.10154376 
18000000   0.10091248 
18010000  0.099271669 
18020000   0.10449466 
18030000   0.10073586 
18040000   0.10926541 
18050000  0.089817944 
18060000   0.10306895 
18070000   0.09929092 
18080000   0.10308389 
18090000   0.10795683 
18100000    0.1053025 
18110000  0.096262814 
18120000  0.099603594 
18130000  0.098739163 
18140000   0.10312309 
18150000   0.10093636 
18160000   0.09899917 
18170000  0.094643872 
18180000  0.099159946 
18190000   0.10565997 
18200000   0.09719178 
18210000  0.094068819 
18220000    0.1004387 
18230000   0.10804475 
18240000   0.10971863 
18250000  0.098017882 
18260000  0.098648181 
18270000   0.10212777 
18280000   0.11030339 
18290000  0.095492797 
18300000   0.10147928 
18310000   0.10555087 
18320000  0.096957715 
18330000   0.10066207 
18340000   0.10672657 
18350000   0.10174781 
18360000   0.10008572 
18370000  0.098323737 
18380000  0.095228009 
18390000   0.10641336 
18400000   0.09668043 
18410000   0.10257754 
18420000   0.10008397 
18430000  0.090683341 
18440000   0.10715911 
18450000   0.10215267 
18460000  0.099383986 
18470000    0.1065275 
18480000  0.092275711 
18490000    0.1037205 
18500000  0.098614247 
18510000  0.088595546 
18520000   0.09535911 
18530000   0.10571815 
18540000  0.094464499 
18550000   0.09869854 
18560000  0.094784241 
18570000  0.097555621 
18580000   0.10232252 
18590000   0.10306469 
18600000  0.096469794 
18610000   0.10619055 
18620000   0.09422908 
18630000   0.10666328 
18640000   0.10024753 
18650000   0.10129154 
18660000   0.10338461 
18670000    0.1006338 
18680000   0.09768848 
18690000  0.097391501 
18700000  0.097801313 
18710000   0.10129244 
18720000   0.11638157 
18730000   0.10237381 
18740000  0.093519683 
18750000   0.11316929 
18760000  0.095730311 
18770000  0.096401515 
18780000   0.10405289 
18790000  0.098687506 
18800000   0.10321148 
18810000  0.090510432 
18820000  0.099757402 
18830000  0.099283908 
18840000  0.097956278 
18850000   0.10448115 
18860000  0.096713709 
18870000   0.10035298 
18880000  0.097264585 
18890000   0.10227145 
18900000    0.1010999 
18910000  0.099094152 
18920000  0.097255479 
18930000  0.097089866 
18940000  0.096666293 
18950000   0.10075415 
18960000   0.10441883 
18970000   0.10233779 
18980000   0.10566281 
18990000   0.09974712 
19000000   0.10401316 
19010000   0.10090905 
19020000  0.093255156 
19030000  0.097270834 
19040000  0.099230972 
19050000   0.11991091 
19060000   0.10296245 
19070000  0.097845351 
19080000    0.1061971 
19090000   0.10375405 
19100000  0.094777356 
19110000   0.10955489 
19120000   0.10115286 
19130000  0.092992018 
19140000  0.099607488 
19150000  0.093805367 
19160000  0.093421923 
19170000   0.09421792 
19180000   0.10020147 
19190000  0.097178983 
19200000   0.08947279 
19210000  0.093223969 
19220000   0.09905984 
19230000   0.09033891 
19240000  0.099795068 
19250000  0.099503411 
19260000  0.099267011 
19270000   0.09965732 
19280000   0.09837672 
19290000   0.10997139 
19300000  0.092526666 
19310000  0.095051349 
19320000   0.10024283 
19330000   0.10023726 
19340000   0.10060989 
19350000  0.092962384 
19360000   0.09358089 
19370000  0.099461783 
19380000   0.10078426 
19390000  0.098592806 
19400000   0.10348613 
19410000  0.096274019 
19420000  0.098948851 
19430000  0.097676763 
19440000   0.10257749 
19450000   0.10766685 
19460000   0.10929233 
19470000  0.099941399 
19480000  0.099904537 
19490000   0.09689379 
19500000   0.10002552 
19510000  0.098808414 
19520000  0.096037708 
19530000   0.10291224 
19540000  0.099360541 
19550000  0.098333967 
19560000  0.098059905 
19570000  0.096474436 
19580000   0.10489243 
19590000   0.10012464 
19600000  0.099455702 
19610000   0.10065826 
19620000   0.11149561 
19630000  0.098660003 
19640000   0.10307933 
19650000  0.098337025 
19660000   0.10039348 
19670000   0.10077769 
19680000   0.10166937 
19690000   0.10354846 
19700000   0.09925171 
19710000  0.099751614 
19720000   0.10436013 
19730000  0.093733416 
19740000  0.098949588 
19750000   0.10953409 
19760000   0.09869192 
19770000   0.10661004 
19780000   0.11011074 
19790000   0.10561717 
19800000  0.098165889 
19810000   0.10575064 
19820000   0.09109545 
19830000  0.094878124 
19840000  0.097315001 
19850000    0.1027138 
19860000  0.093964931 
19870000   0.10170237 
19880000   0.11017565 
19890000   0.11298614 
19900000   0.10482982 
19910000  0.097647316 
19920000   0.10363005 
19930000   0.10206519 
19940000  0.099362063 
19950000   0.10583166 
19960000  0.098127721 
19970000   0.10696606 
19980000   0.10694345 
19990000   0.10007788 
20000000   0.10269009 
20010000  0.091926217 
20020000   0.10058976 
20030000  0.096561521 
20040000   0.09697573 
20050000    0.1083783 
20060000   0.10017424 
20070000  0.091637045 
20080000   0.10187544 
20090000  0.093805858 
20100000   0.10161998 
20110000    0.0917508 
20120000  0.092592521 
20130000   0.10086411 
20140000   0.11108116 
20150000  0.099473137 
20160000   0.10735296 
20170000  0.092621601 
20180000   0.10096199 
20190000   0.10247855 
20200000   0.10437829 
20210000     0.105033 
20220000    0.1029035 
20230000   0.10597496 
20240000   0.10193253 
20250000   0.10138583 
20260000   0.09565625 
20270000  0.087932389 
20280000  0.099272895 
20290000  0.098998675 
20300000   0.10878422 
20310000   0.10897957 
20320000  0.099412569 
20330000  0.099628424 
20340000  0.098288117 
20350000   0.10517016 
20360000  0.097498231 
20370000   0.09493888 
20380000   0.10085792 
20390000  0.092778763 
20400000   0.10050092 
20410000   0.10065062 
20420000  0.095401054 
20430000  0.094522472 
20440000   0.10189815 
20450000  0.096178956 
20460000   0.11179909 
20470000   0.10531124 
20480000   0.10232069 
20490000   0.10676516 
20500000   0.10220991 
20510000  0.099969655 
20520000  0.099744984 
20530000  0.096599281 
20540000   0.10011097 
20550000   0.10714163 
20560000  0.094092115 
20570000   0.10459524 
20580000   0.10013687 
20590000  0.090442986 
20600000   0.10202243 
20610000   0.10022316 
20620000   0.10130841 
20630000   0.10387411 
20640000   0.10336778 
20650000   0.10900678 
20660000   0.10889849 
20670000  0.098754794 
20680000  0.098713854 
20690000  0.099102759 
20700000    0.1004596 
20710000   0.09488057 
20720000  0.098302758 
20730000  0.097429349 
20740000  0.096404823 
20750000    0.1027924 
20760000   0.10440101 
20770000  0.099298693 
20780000    0.1010491 
20790000   0.10377765 
20800000   0.11314706 
20810000  0.093320086 
20820000  0.099182239 
20830000  0.095796221 
20840000   0.10062606 
20850000  0.096168766 
20860000   0.10155549 
20870000  0.091170599 
20880000   0.10166966 
20890000   0.10055871 
20900000  0.092586303 
20910000   0.10167285 
20920000  0.097246262 
20930000  0.097335602 
20940000    0.1040064 
20950000  0.093217898 
20960000   0.10620525 
20970000  0.092650429 
20980000   0.10165331 
20990000   0.09892623 
21000000  0.096695431 
21010000  0.091220999 
21020000  0.097259124 
21030000   0.10436832 
21040000   0.10017082 
21050000   0.10325176 
21060000   0.10506157 
21070000  0.098723752 
21080000    0.1086404 
21090000    0.1026579 
21100000   0.10431451 
21110000   0.10573276 
21120000   0.10055009 
21130000  0.093113203 
21140000  0.096864984 
21150000   0.10796035 
21160000   0.11254718 
21170000  0.096002825 
21180000   0.10014377 
21190000   0.10041559 
21200000   0.10567515 
21210000   0.10084493 
21220000   0.10108169 
21230000  0.098409046 
21240000   0.10442839 
21250000   0.10981797 
21260000   0.10036736 
21270000  0.096849677 
21280000   0.10689761 
21290000   0.10229996 
21300000  0.096780344 
21310000  0.098147081 
21320000  0.099092262 
21330000   0.10197779 
21340000   0.10809877 
21350000  0.096868305 
21360000   0.10036626 
21370000   0.10115775 
21380000   0.10855576 
21390000   0.10264094 
21400000    0.1001901 
21410000   0.10393569 
21420000  0.097101162 
21430000  0.096874914 
21440000  0.096482849 
21450000  0.087606309 
21460000  0.095370907 
21470000  0.096984641 
21480000  0.096910645 
21490000   0.09970468 
21500000  0.098220484 
21510000  0.097002854 
21520000  0.098037727 
21530000   0.10039957 
21540000   0.10032618 
21550000   0.10364647 
21560000  0.093424136 
21570000  0.093958085 
21580000   0.10414222 
21590000   0.10314797 
21600000   0.10613515 
21610000   0.10632363 
21620000  0.099396403 
21630000   0.10651707 
21640000  0.098155031 
21650000   0.10225765 
21660000  0.098804138 
21670000   0.10474903 
21680000   0.10321867 
21690000   0.09988664 
21700000   0.10375581 
21710000  0.093734089 
21720000  0.096185978 
21730000  0.099493886 
21740000   0.09533009 
21750000  0.092644365 
21760000   0.10727593 
21770000   0.10037605 
21780000  0.095229077 
21790000  0.098071722 
21800000     0.103667 
21810000   0.10189979 
21820000  0.098537781 
21830000   0.10108131 
21840000   0.10114661 
21850000  0.093776482 
21860000  0.099356476 
21870000   0.10060507 
21880000   0.10033927 
21890000  0.093566502 
21900000  0.099617869 
21910000   0.10277748 
21920000  0.092701484 
21930000   0.11109128 
21940000  0.095610627 
21950000   0.10433588 
21960000  0.096681288 
21970000  0.099799715 
21980000   0.10085691 
21990000   0.11017424 
22000000     0.100357 
22010000  0.093915734 
22020000  0.099115939 
22030000  0.092167083 
22040000   0.10234293 
22050000   0.10210653 
22060000   0.10587002 
22070000  0.095329364 
22080000   0.09863371 
22090000   0.10141779 
22100000   0.10081019 
22110000   0.10651566 
22120000   0.10793011 
22130000  0.090919502 
22140000   0.09788827 
22150000  0.099193821 
22160000  0.096711265 
22170000   0.10824372 
22180000   0.10660018 
22190000  0.098623575 
22200000  0.093683967 
22210000   0.10327129 
22220000  0.095050534 
22230000   0.10685264 
22240000  0.096360808 
22250000   0.10091608 
22260000   0.10871761 
22270000     0.102706 
22280000   0.09693014 
22290000  0.096032887 
22300000   0.10206976 
22310000  0.099054421 
22320000  0.095296491 
22330000   0.10609408 
22340000   0.10356926 
22350000   0.10056043 
22360000    0.1009608 
22370000  0.095572388 
22380000   0.10331849 
22390000   0.10855683 
22400000  0.094626867 
22410000     0.102642 
22420000  0.097025634 
22430000   0.10599692 
22440000  0.096125826 
22450000   0.10288112 
22460000  0.095812228 
22470000   0.10306558 
22480000  0.095245011 
22490000   0.10345618 
22500000   0.10739108 
22510000  0.098709733 
22520000   0.10236321 
22530000  0.096492926 
22540000  0.095206871 
22550000   0.10586289 
22560000   0.10401054 
22570000   0.10431499 
22580000  0.097174007 
22590000  0.098508431 
22600000   0.10469196 
22610000  0.096316321 
22620000   0.10330527 
22630000  0.097288647 
22640000   0.11147961 
22650000  0.096637076 
22660000  0.099344867 
22670000  0.099263585 
22680000  0.095259308 
22690000  0.099934293 
22700000   0.10206616 
22710000   0.10731017 
22720000  0.098584495 
22730000   0.10088799 
22740000   0.10662761 
22750000  0.094661195 
22760000   0.10111165 
22770000   0.10626869 
22780000  0.097866125 
22790000   0.11022481 
22800000   0.11354398 
22810000  0.097457271 
22820000   0.10252486 
22830000   0.10280398 
22840000   0.10091116 
22850000   0.10266167 
22860000   0.10107826 
22870000  0.096680355 
22880000  0.098480827 
22890000    0.1025416 
22900000  0.098412989 
22910000   0.10811395 
22920000   0.09538413 
22930000   0.09035751 
22940000   0.10072713 
22950000   0.09894581 
22960000   0.10082619 
22970000   0.10120368 
22980000  0.098763849 
22990000   0.09798759 
23000000   0.10144764 
23010000  0.094610975 
23020000  0.091558722 
23030000   0.10077027 
23040000  0.099291944 
23050000   0.10079325 
23060000  0.098079024 
23070000  0.095172073 
23080000   0.10249873 
23090000  0.095737183 
23100000  0.099374127 
23110000   0.10247294 
23120000  0.097156944 
23130000   0.10347744 
23140000   0.10678857 
23150000   0.10473178 
23160000  0.093620498 
23170000  0.099439233 
23180000   0.10266834 
23190000   0.10531831 
23200000   0.10012633 
23210000   0.10299887 
23220000  0.094263905 
23230000  0.093539915 
23240000   0.10365638 
23250000   0.10674843 
23260000   0.10428272 
23270000  0.096740048 
23280000  0.098993716 
23290000  0.098171768 
23300000   0.10052701 
23310000   0.10339672 
23320000   0.10419453 
23330000  0.098589861 
23340000   0.10464823 
23350000   0.10150745 
23360000  0.099794811 
23370000   0.11111478 
23380000  0.099448951 
23390000   0.10063989 
23400000  0.099421121 
23410000   0.10787689 
23420000  0.093678701 
23430000  0.098402189 
23440000   0.10375706 
23450000   0.10037413 
23460000   0.10090004 
23470000  0.099060486 
23480000   0.10132208 
23490000  0.097952945 
23500000   0.10341105 
23510000  0.098410797 
23520000   0.10266864 
23530000  0.097103081 
23540000  0.097165719 
23550000  0.089201275 
23560000  0.099305758 
23570000  0.099741916 
23580000   0.10420639 
23590000  0.091819429 
23600000  0.095816242 
23610000   0.10957717 
23620000    0.1067037 
23630000  0.099065715 
23640000    0.1083375 
23650000   0.10174853 
23660000  0.094386087 
23670000    0.1015754 
23680000   0.10201834 
23690000   0.10348379 
23700000  0.095526037 
23710000  0.093388416 
23720000   0.10146932 
23730000  0.094841951 
23740000   0.10332803 
23750000   0.10353034 
23760000  0.095439073 
23770000  0.086788964 
23780000   0.09479286 
23790000   0.10134547 
23800000    0.1009279 
23810000  0.097380561 
23820000   0.10425772 
23830000   0.09779103 
23840000  0.092115681 
23850000  0.093980542 
23860000   0.10045053 
23870000  0.088553235 
23880000  0.095240768 
23890000  0.099933516 
23900000  0.095928891 
23910000  0.098688512 
23920000  0.098310847 
23930000  0.094554074 
23940000   0.10186567 
23950000   0.10558709 
23960000   0.10098862 
23970000   0.10570881 
23980000   0.09322317 
23990000   0.10765026 
24000000   0.10274787 
24010000   0.10013308 
24020000  0.088762899 
24030000  0.096609993 
24040000   0.10742733 
24050000  0.097514572 
24060000   0.10196076 
24070000   0.10144712 
24080000  0.098709588 
24090000   0.10336876 
24100000  0.092232262 
24110000  0.097041362 
24120000  0.099631486 
24130000  0.092324818 
24140000   0.10163798 
24150000  0.097988492 
24160000    0.1026377 
24170000   0.10037114 
24180000   0.10150755 
24190000   0.10111766 
24200000   0.10127898 
24210000  0.095355068 
24220000   0.10337352 
24230000   0.11133439 
24240000  0.094831721 
24250000  0.096865096 
24260000   0.10151978 
24270000  0.096227143 
24280000   0.10253485 
24290000   0.10746536 
24300000  0.092152962 
24310000  0.097520452 
24320000   0.10266816 
24330000  0.094370007 
24340000  0.097137143 
24350000  0.094665735 
24360000   0.10001667 
24370000  0.099162939 
24380000   0.10540409 
24390000  0.095451894 
24400000   0.10331424 
24410000  0.099810291 
24420000   0.10046867 
24430000  0.097847348 
24440000  0.097748016 
24450000  0.098494037 
24460000   0.10877964 
24470000  0.090913394 
24480000  0.093261217 
24490000  0.095408423 
24500000    0.1051425 
24510000   0.10774439 
24520000   0.10253844 
24530000   0.11175719 
24540000   0.10547744 
24550000  0.097082708 
24560000   0.10397422 
24570000  0.095177499 
24580000     0.093791 
24590000     0.104989 
24600000  0.091554158 
24610000  0.094232305 
24620000   0.11402993 
24630000   0.10584468 
24640000   0.10101305 
24650000    0.1088336 
24660000   0.10115104 
24670000  0.095512423 
24680000  0.097341084 
24690000   0.10610648 
24700000   0.11255664 
24710000   0.10397048 
24720000  0.092309021 
24730000  0.099872065 
24740000   0.10221722 
24750000    0.1005587 
24760000   0.10081203 
24770000    0.1083357 
24780000  0.098079229 
24790000   0.10210205 
24800000   0.10164677 
24810000    0.1038531 
24820000   0.10042669 
24830000   0.10915345 
24840000   0.10181052 
24850000   0.10062076 
24860000   0.09694781 
24870000   0.10231686 
24880000  0.095919152 
24890000   0.10097765 
24900000   0.10445455 
24910000   0.10068916 
24920000   0.10381993 
24930000  0.097070205 
24940000   0.10011847 
24950000  0.094668215 
24960000  0.097965596 
24970000   0.10289124 
24980000  0.091276767 
24990000   0.10775054 
25000000  0.094527997 
25010000   0.10605894 
25020000    0.1048045 
25030000  0.096490249 
25040000    0.1004206 
25050000  0.092081988 
25060000  0.098738112 
25070000  0.098903283 
25080000  0.092409427 
25090000    0.1026021 
25100000   0.10477857 
25110000  0.096103894 
25120000   0.10428388 
25130000   0.10015106 
25140000   0.10692554 
25150000  0.097425214 
25160000  0.094919101 
25170000  0.098587629 
25180000  0.095866143 
25190000   0.09908111 
25200000    0.0929965 
25210000   0.10460099 
25220000  0.097592557 
25230000   0.10269957 
25240000   0.10571291 
25250000   0.10190737 
25260000  0.099257866 
25270000  0.099142292 
25280000  0.097630178 
25290000   0.10139623 
25300000  0.093395539 
25310000    0.1058632 
25320000   0.10070825 
25330000   0.10529019 
25340000  0.094448893 
25350000  0.094999882 
25360000  0.096655309 
25370000   0.10917796 
25380000   0.10121364 
25390000  0.097686065 
25400000  0.099187414 
25410000  0.085394158 
25420000   0.10085391 
25430000   0.10449383 
25440000  0.095700842 
25450000   0.10119389 
25460000    0.1014483 
25470000  0.096402998 
25480000   0.10242341 
25490000  0.099881689 
25500000  0.097516788 
25510000   0.10057982 
25520000  0.088682198 
25530000   0.11092181 
25540000   0.10390941 
25550000   0.10002565 
25560000   0.09641649 
25570000   0.10510405 
25580000  0.094454727 
25590000  0.097612558 
25600000    0.1040645 
25610000   0.10494627 
25620000   0.10617225 
25630000  0.098789032 
25640000   0.10110712 
25650000   0.10136914 
25660000  0.089017556 
25670000  0.097088213 
25680000  0.096869965 
25690000  0.095130584 
25700000   0.10558385 
25710000  0.094974018 
25720000  0.094372407 
25730000   0.09980214 
25740000  0.096931504 
25750000  0.099186981 
25760000   0.10700458 
25770000   0.10060091 
25780000   0.10128695 
25790000    0.1064558 
25800000   0.10021524 
25810000  0.097386082 
25820000  0.096546474 
25830000   0.10386147 
25840000  0.099049069 
25850000   0.10251453 
25860000   0.10036819 
25870000    0.1015569 
25880000  0.099341519 
25890000  0.094753353 
25900000   0.10601283 
25910000   0.10706439 
25920000   0.10793184 
25930000    0.1034025 
25940000   0.10224278 
25950000  0.092049851 
25960000  0.097903673 
25970000  0.093631436 
25980000   0.10358587 
25990000  0.099022718 
26000000  0.098114353 
26010000  0.093685318 
26020000  0.094885431 
26030000   0.10217496 
26040000  0.095370528 
26050000  0.095630795 
26060000   0.10979268 
26070000   0.10022507 
26080000   0.10628559 
26090000  0.094833444 
26100000   0.10294518 
26110000  0.099798915 
26120000   0.10447182 
26130000  0.092684062 
26140000   0.10548132 
26150000  0.098526956 
26160000  0.098853911 
26170000  0.098853724 
26180000  0.095662769 
26190000   0.10272804 
26200000  0.094898393 
26210000  0.099053122 
26220000   0.10198086 
26230000  0.098726623 
26240000   0.10449521 
26250000  0.096193565 
26260000   0.11123017 
26270000   0.09339556 
26280000   0.10610167 
26290000   0.09623871 
26300000   0.10139036 
26310000   0.10059166 
26320000  0.092551921 
26330000   0.10943825 
26340000   0.10454511 
26350000   0.10399914 
26360000   0.10295221 
26370000  0.098530855 
26380000  0.098798084 
26390000   0.10382567 
26400000   0.09989593 
26410000   0.10472394 
26420000   0.10247133 
26430000  0.099361961 
26440000   0.10185535 
26450000   0.10800592 
26460000   0.10045164 
26470000  0.095605168 
26480000  0.099549839 
26490000   0.10045568 
26500000   0.09864357 
26510000     0.101459 
26520000   0.10251732 
26530000  0.098801997 
26540000   0.10019734 
26550000  0.098682221 
26560000   0.11168017 
26570000   0.10103597 
26580000   0.10302065 
26590000   0.10111018 
26600000  0.097866591 
26610000  0.098289352 
26620000   0.10632245 
26630000  0.097217801 
26640000  0.095735492 
26650000   0.10953613 
26660000  0.099305548 
26670000  0.097006676 
26680000   0.10250844 
26690000  0.098346555 
26700000   0.10253253 
26710000   0.10704662 
26720000   0.10376877 
26730000   0.10043469 
26740000   0.09883239 
26750000   0.10597596 
26760000  0.099715941 
26770000   0.10333365 
26780000  0.098368561 
26790000   0.10799398 
26800000  0.094468497 
26810000  0.097590788 
26820000    0.1006649 
26830000   0.10683673 
26840000  0.093828456 
26850000  0.098430404 
26860000   0.10615528 
26870000   0.10740302 
26880000   0.09664089 
26890000  0.096316846 
26900000  0.093495041 
26910000  0.098325469 
26920000  0.098860011 
26930000  0.099669853 
26940000   0.09525333 
26950000  0.098116945 
26960000  0.098262799 
26970000    0.1019487 
26980000  0.095656212 
26990000  0.097429995 
27000000   0.10376196 
27010000  0.095710747 
27020000  0.092408553 
27030000  0.092756372 
27040000   0.10239904 
27050000   0.10691485 
27060000  0.096459432 
27070000   0.10027208 
27080000  0.096976692 
27090000  0.097385911 
27100000   0.10305974 
27110000   0.10157207 
27120000   0.10618067 
27130000  0.093059785 
27140000   0.10437057 
27150000   0.10735394 
27160000  0.099852796 
27170000   0.10205403 
27180000   0.10767915 
27190000    0.1076628 
27200000    0.1059602 
27210000   0.10481013 
27220000   0.10430857 
27230000  0.099592932 
27240000  0.097029071 
27250000   0.09070495 
27260000   0.10071074 
27270000    0.1019436 
27280000   0.10386648 
27290000  0.094638334 
27300000   0.10115178 
27310000  0.097978186 
27320000  0.098958614 
27330000  0.097233634 
27340000  0.096909221 
27350000  0.098032143 
27360000   0.10096467 
27370000  0.095101281 
27380000  0.098298785 
27390000  0.098595973 
27400000   0.10660176 
27410000   0.10666009 
27420000   0.10234368 
27430000  0.099100379 
27440000  0.096634355 
27450000   0.10408496 
27460000  0.091245805 
27470000  0.092154101 
27480000  0.094588928 
27490000  0.096857161 
27500000   0.10396585 
27510000   0.10560306 
27520000   0.09668097 
27530000   0.10197908 
27540000   0.10313319 
27550000  0.098494703 
27560000  0.097671214 
27570000    0.1085107 
27580000  0.095343392 
27590000   0.10107985 
27600000   0.10361752 
27610000   0.10070353 
27620000   0.10011185 
27630000  0.094869377 
27640000  0.093556291 
27650000   0.10454175 
27660000   0.10010127 
27670000  0.099985219 
27680000   0.10599583 
27690000  0.086847906 
27700000  0.099724542 
27710000  0.095724025 
27720000   0.10089347 
27730000   0.10098053 
27740000   0.10366137 
27750000  0.098744138 
27760000   0.10099998 
27770000   0.10360964 
27780000  0.099102501 
27790000   0.10645312 
27800000   0.10040667 
27810000    0.1031303 
27820000  0.099960852 
27830000  0.099383805 
27840000   0.10008215 
27850000  0.099503588 
27860000  0.097347531 
27870000   0.10141354 
27880000   0.10206347 
27890000  0.097612942 
27900000   0.10123995 
27910000  0.098514387 
27920000  0.096582675 
27930000   0.10157491 
27940000  0.096215148 
27950000  0.093886136 
27960000  0.097642056 
27970000  0.089039052 
27980000   0.10082729 
27990000   0.10517606 
28000000   0.09744203 
28010000  0.098411562 
28020000  0.097715465 
28030000   0.10742114 
28040000  0.099317036 
28050000  0.095122862 
28060000   0.10163293 
28070000  0.098873384 
28080000  0.094239107 
28090000  0.089032178 
28100000   0.10818625 
28110000  0.096820559 
28120000   0.10573027 
28130000   0.10209208 
28140000  0.093851479 
28150000  0.099355582 
28160000  0.099314667 
28170000  0.097146346 
28180000  0.090607368 
28190000  0.097358122 
28200000   0.10514701 
28210000    0.1028674 
28220000   0.10018133 
28230000  0.095734058 
28240000   0.10124914 
28250000  0.088361577 
28260000   0.10617785 
28270000   0.10172174 
28280000  0.093528097 
28290000  0.097208243 
28300000   0.10683002 
28310000  0.090421607 
28320000   0.11001645 
28330000  0.096754887 
28340000   0.10039453 
28350000   0.10017682 
28360000  0.097108485 
28370000  0.097093548 
28380000  0.096376244 
28390000  0.097933802 
28400000  0.099957944 
28410000   0.10142586 
28420000  0.096013086 
28430000  0.096653995 
28440000   0.10501895 
28450000   0.10434468 
28460000  0.092072887 
28470000  0.098269878 
28480000   0.10067444 
28490000   0.10500305 
28500000    0.1015378 
28510000  0.099906184 
28520000  0.092082143 
28530000   0.10867073 
28540000  0.094883053 
28550000  0.092875722 
28560000  0.095653229 
28570000   0.10248155 
28580000   0.10360946 
28590000  0.094558992 
28600000  0.095519682 
28610000  0.092911374 
28620000  0.099207229 
28630000  0.090766855 
28640000    0.1043455 
28650000   0.10097709 
28660000    0.1068267 
28670000  0.099329553 
28680000  0.095700736 
28690000  0.094665228 
28700000  0.099371092 
28710000   0.10015857 
28720000    0.1074098 
28730000   0.10525266 
28740000   0.10092689 
28750000  0.099222433 
28760000  0.099905996 
28770000   0.10599296 
28780000  0.097521295 
28790000  0.098106576 
28800000   0.10887528 
28810000       0.1038 
28820000   0.10107589 
28830000   0.10068873 
28840000   0.10577492 
28850000  0.098893367 
28860000  0.094715443 
28870000  0.099529178 
28880000    0.0971511 
28890000   0.10735358 
28900000  0.093533047 
28910000  0.090950144 
28920000   0.09676867 
28930000  0.092126132 
28940000   0.10743594 
28950000   0.10080033 
28960000  0.097077743 
28970000   0.10371303 
28980000   0.10225769 
28990000  0.093319588 
29000000  0.094609832 
29010000   0.10227792 
29020000  0.091072955 
29030000  0.098292419 
29040000  0.092017032 
29050000   0.10895618 
29060000  0.096362492 
29070000   0.10738378 
29080000  0.094337044 
29090000   0.10466992 
29100000    0.1035238 
29110000  0.099849508 
29120000    0.1031718 
29130000   0.10008917 
29140000   0.10131932 
29150000  0.098706781 
29160000   0.10071475 
29170000   0.10113134 
29180000   0.10518911 
29190000   0.10013907 
29200000  0.095269049 
29210000  0.092064132 
29220000  0.095529973 
29230000   0.10139439 
29240000    0.1030325 
29250000   0.10828852 
29260000  0.093643283 
29270000   0.10330236 
29280000   0.10304205 
29290000   0.10829491 
29300000   0.10326658 
29310000  0.097378662 
29320000  0.099196458 
29330000   0.10797933 
29340000   0.10187328 
29350000   0.10156177 
29360000   0.10659654 
29370000   0.10598306 
29380000     0.106011 
29390000  0.091189425 
29400000  0.099566096 
29410000   0.10450536 
29420000   0.10200026 
29430000   0.10075298 
29440000   0.10552127 
29450000    0.1047602 
29460000  0.095079558 
29470000  0.096277669 
29480000   0.10271632 
29490000  0.093089392 
29500000   0.09730476 
29510000  0.096502333 
29520000  0.097370615 
29530000  0.097095257 
29540000  0.096893079 
29550000   0.10881278 
29560000  0.097092006 
29570000  0.095351093 
29580000  0.094222909 
29590000  0.099582277 
29600000  0.094266636 
29610000   0.10703512 
29620000  0.099715314 
29630000  0.097562508 
29640000  0.097719202 
29650000  0.095924133 
29660000   0.10561126 
29670000   0.10069176 
29680000  0.098574011 
29690000   0.10416702 
29700000  0.098170814 
29710000   0.10316103 
29720000   0.10783619 
29730000  0.099146565 
29740000  0.098934809 
29750000    0.1002912 
29760000  0.099967647 
29770000  0.098834867 
29780000   0.09473715 
29790000   0.10146244 
29800000  0.098514895 
29810000  0.095738435 
29820000  0.099499969 
29830000  0.094590941 
29840000  0.095269726 
29850000   0.10239844 
29860000   0.10494742 
29870000   0.10467627 
29880000   0.10119651 
29890000   0.10510516 
29900000   0.10049464 
29910000   0.10085367 
29920000  0.099909627 
29930000   0.10781429 
29940000  0.098814281 
29950000  0.092603136 
29960000   0.10571222 
29970000  0.094315555 
29980000     0.107199 
29990000   0.10109338 
30000000   0.10819915 
30010000  0.091999718 
30020000   0.10324005 
30030000   0.10075378 
30040000   0.10152914 
30050000   0.10484796 
30060000   0.10484405 
30070000  0.099545051 
30080000  0.094830516 
30090000   0.10239715 
30100000  0.094685153 
30110000   0.10428372 
30120000  0.099391484 
30130000  0.099407563 
30140000   0.10422508 
30150000   0.10557039 
30160000   0.10994648 
30170000   0.11092629 
30180000   0.10584928 
30190000   0.10102649 
30200000  0.095479964 
30210000   0.10117688 
30220000    0.1007182 
30230000   0.10172669 
30240000   0.10466157 
30250000   0.10623567 
30260000   0.10359556 
30270000    0.0984748 
30280000   0.10584905 
30290000   0.10487844 
30300000  0.096945497 
30310000  0.097584708 
30320000    0.1011726 
30330000   0.10220983 
30340000   0.10300995 
30350000   0.10379019 
30360000   0.10569723 
30370000  0.099677544 
30380000   0.10414039 
30390000   0.10517619 
30400000  0.099823628 
30410000   0.10213257 
30420000   0.10353227 
30430000   0.10534859 
30440000    0.1032616 
30450000  0.087822181 
30460000   0.10608698 
30470000  0.093520245 
30480000  0.097127137 
30490000  0.093009924 
30500000  0.095370632 
30510000   0.10032835 
30520000   0.10504673 
30530000   0.10606989 
30540000  0.090901139 
30550000  0.096985205 
30560000  0.094284086 
30570000   0.10030918 
30580000  0.092308134 
30590000   0.11011856 
30600000   0.10354466 
30610000   0.11247621 
30620000  0.095469299 
30630000  0.086763879 
30640000   0.10088261 
30650000   0.10063818 
30660000  0.099501268 
30670000  0.098647224 
30680000   0.10046625 
30690000  0.099395351 
30700000  0.098570689 
30710000   0.10157219 
30720000    0.1036105 
30730000   0.10641991 
30740000    0.1075702 
30750000  0.088720666 
30760000   0.10010833 
30770000  0.092163489 
30780000  0.099090863 
30790000  0.093774187 
30800000   0.10191523 
30810000   0.10227665 
30820000   0.10139162 
30830000    0.1025965 
30840000    0.1013672 
30850000  0.099394675 
30860000    0.1037513 
30870000    0.1017455 
30880000  0.097315149 
30890000  0.098398985 
30900000   0.10276945 
30910000   0.10189584 
30920000   0.10375034 
30930000   0.10757663 
30940000  0.098596881 
30950000  0.094603767 
[...]
248180000   0.10036461 
248190000   0.09143587 
248200000  0.096669895 
248210000  0.091343274 
248220000   0.10543591 
248230000  0.096623951 
248240000   0.10467355 
248250000   0.10337879 
248260000  0.096312118 
248270000  0.093060804 
248280000   0.10379176 
248290000   0.10010098 
248300000  0.089884109 
248310000  0.097736729 
248320000   0.09385487 
248330000  0.092868863 
248340000  0.095745087 
248350000  0.097505386 
248360000   0.10730947 
248370000  0.093051427 
248380000   0.10076868 
248390000   0.10716603 
248400000   0.10073039 
248410000   0.10250468 
248420000  0.094430875 
248430000  0.099658984 
248440000   0.10067563 
248450000   0.10470814 
248460000  0.095763159 
248470000  0.099921652 
248480000  0.098127303 
248490000   0.10109997 
248500000   0.10173291 
248510000   0.11030325 
248520000   0.10266304 
248530000   0.10037551 
248540000   0.11306953 
248550000  0.092943721 
248560000   0.10567672 
248570000   0.10659947 
248580000   0.10516234 
248590000   0.10179717 
248600000   0.09731253 
248610000   0.10587873 
248620000  0.099075909 
248630000  0.096087972 
248640000   0.10530869 
248650000   0.10829529 
248660000   0.10749324 
248670000  0.095898555 
248680000   0.10037914 
248690000  0.098655619 
248700000  0.088296748 
248710000   0.10508454 
248720000   0.10338371 
248730000   0.11001325 
248740000   0.10251195 
248750000   0.10284299 
248760000  0.099410694 
248770000   0.10196326 
248780000   0.10435368 
248790000   0.11231108 
248800000   0.10012323 
248810000  0.098293286 
248820000  0.093672138 
248830000   0.10886592 
248840000  0.094500858 
248850000  0.099215006 
248860000  0.094887907 
248870000   0.10061887 
248880000   0.10404574 
248890000  0.093729514 
248900000    0.1078798 
248910000  0.095393949 
248920000   0.10381368 
248930000  0.095583938 
248940000   0.10285475 
248950000  0.098695956 
248960000   0.10097374 
248970000  0.098715085 
248980000  0.094282813 
248990000  0.099030968 
249000000   0.09910774 
249010000  0.093033707 
249020000   0.10178514 
249030000   0.10004229 
249040000   0.10522615 
249050000  0.095912802 
249060000   0.10543473 
249070000   0.10330467 
249080000    0.1056126 
249090000   0.10173309 
249100000   0.10744927 
249110000  0.099338594 
249120000   0.09964534 
249130000  0.096676722 
249140000   0.10067853 
249150000  0.096765537 
249160000  0.098053252 
249170000   0.10012323 
249180000  0.096190933 
249190000  0.088406737 
249200000  0.094865351 
249210000  0.097367078 
249220000   0.10158076 
249230000   0.10896407 
249240000  0.093731296 
249250000  0.090681252 
249260000   0.10371582 
249270000   0.09244059 
249280000   0.10339521 
249290000   0.10328607 
249300000    0.1085766 
249310000   0.10165417 
249320000   0.10006628 
249330000   0.10203849 
249340000  0.097056757 
249350000   0.10977677 
249360000   0.10587801 
249370000   0.10206542 
249380000   0.10463576 
249390000   0.10001942 
249400000   0.10654434 
249410000   0.10168926 
249420000   0.10393848 
249430000  0.095931151 
249440000     0.101938 
249450000  0.096593158 
249460000   0.10131664 
249470000   0.10153641 
249480000    0.1039318 
249490000   0.10048726 
249500000   0.10310339 
249510000  0.096292918 
249520000  0.098667133 
249530000  0.097417087 
249540000   0.10326186 
249550000  0.099600264 
249560000  0.098582026 
249570000    0.1044919 
249580000   0.10178797 
249590000   0.10981297 
249600000  0.092920045 
249610000    0.0992485 
249620000  0.097008706 
249630000  0.097241044 
249640000   0.10437498 
249650000  0.093812205 
249660000   0.10075684 
249670000   0.09869011 
249680000   0.10188779 
249690000  0.099670552 
249700000  0.095351882 
249710000   0.10002417 
249720000   0.10833068 
249730000  0.095670771 
249740000    0.1004868 
249750000  0.097969837 
249760000  0.094643659 
249770000  0.099292094 
249780000    0.0970782 
249790000   0.10175609 
249800000  0.099142498 
249810000   0.10342139 
249820000   0.10916387 
249830000  0.092783763 
249840000   0.10223446 
249850000  0.097752795 
249860000  0.098386538 
249870000   0.10238771 
249880000   0.10303844 
249890000  0.098528871 
249900000   0.10212554 
249910000  0.099480977 
249920000   0.11051179 
249930000  0.096830865 
249940000   0.11096361 
249950000  0.099976792 
249960000   0.10731251 
249970000    0.1001108 
249980000   0.10557268 
249990000   0.10683681 
250000000   0.10021788 
250010000  0.094591362 
250020000   0.10461942 
250030000   0.09387838 
250040000   0.10005352 
250050000  0.099231873 
250060000  0.093743506 
250070000   0.10750031 
250080000   0.10113908 
250090000   0.10330281 
250100000   0.10757772 
250110000  0.093043741 
250120000   0.10221061 
250130000  0.095957681 
250140000   0.10449946 
250150000   0.10439539 
250160000   0.10479892 
250170000  0.097417955 
250180000  0.095011174 
250190000   0.10363091 
250200000   0.10426389 
250210000   0.10722901 
250220000   0.10732647 
250230000  0.098268656 
250240000  0.097150682 
250250000  0.097815776 
250260000  0.094899202 
250270000   0.10067832 
250280000    0.1051202 
250290000  0.097875472 
250300000  0.095053354 
250310000  0.098413884 
250320000   0.10730412 
250330000  0.098565169 
250340000   0.09870771 
250350000  0.099306226 
250360000   0.10171427 
250370000  0.098240226 
250380000  0.098769975 
250390000   0.11014652 
250400000   0.10356394 
250410000   0.10057423 
250420000  0.098240325 
250430000  0.097930908 
250440000  0.096175808 
250450000   0.10620254 
250460000   0.11005882 
250470000   0.10481871 
250480000   0.10700193 
250490000   0.10368851 
250500000   0.10512356 
250510000   0.10813432 
250520000  0.098982347 
250530000   0.10447733 
250540000   0.10324155 
250550000  0.097218679 
250560000  0.096954379 
250570000   0.10930632 
250580000   0.10359904 
250590000  0.095774197 
250600000   0.10308192 
250610000   0.10015236 
250620000  0.099806504 
250630000   0.10229481 
250640000   0.09653429 
250650000   0.10907314 
250660000   0.10558105 
250670000  0.099256541 
250680000   0.10463979 
250690000  0.094083101 
250700000   0.10033185 
250710000  0.099334767 
250720000   0.10476242 
250730000   0.10141784 
250740000   0.10440017 
250750000   0.10806871 
250760000    0.1031366 
250770000   0.09798581 
250780000   0.10703901 
250790000   0.09563762 
250800000   0.10519201 
250810000  0.093891699 
250820000   0.10117927 
250830000   0.10738013 
250840000  0.097096134 
250850000   0.10386483 
250860000  0.094618187 
250870000  0.094501348 
250880000   0.10329691 
250890000  0.097531986 
250900000  0.099873807 
250910000  0.099258013 
250920000  0.095271301 
250930000   0.10301565 
250940000   0.10316771 
250950000  0.094825389 
250960000   0.10272578 
250970000   0.10850044 
250980000   0.10545112 
250990000   0.10433573 
251000000    0.1000298 
251010000  0.097537047 
251020000   0.10350259 
251030000   0.10614339 
251040000   0.10529793 
251050000  0.096913212 
251060000   0.10286839 
251070000  0.091951458 
251080000   0.10984796 
251090000  0.095846405 
251100000  0.097484262 
251110000   0.10557989 
251120000   0.10498197 
251130000  0.099075851 
251140000  0.099064693 
251150000   0.09575638 
251160000   0.10124997 
251170000  0.089639893 
251180000   0.10228523 
251190000  0.094588203 
251200000   0.10293779 
251210000   0.10439887 
251220000   0.10618564 
251230000  0.098533376 
251240000   0.10142749 
251250000   0.10065509 
251260000  0.098836114 
251270000   0.09046701 
251280000  0.094978741 
251290000  0.099794479 
251300000   0.10032627 
251310000   0.10046522 
251320000  0.092512958 
251330000  0.093096455 
251340000   0.10107786 
251350000  0.096482834 
251360000  0.099731533 
251370000   0.10055308 
251380000   0.10059044 
251390000   0.10777314 
251400000  0.097709727 
251410000   0.09886939 
251420000  0.099444616 
251430000  0.091943737 
251440000   0.10132969 
251450000   0.10148655 
251460000   0.10331763 
251470000   0.10101507 
251480000  0.099916721 
251490000   0.09632166 
251500000   0.10466409 
251510000  0.097210793 
251520000  0.090352189 
251530000  0.097957911 
251540000  0.093620193 
251550000  0.097201809 
251560000   0.10255288 
251570000   0.10130057 
251580000  0.098947698 
251590000   0.10782008 
251600000  0.098040271 
251610000   0.11003958 
251620000   0.09625675 
251630000  0.099902538 
251640000   0.10480977 
251650000  0.098731032 
251660000   0.10111859 
251670000  0.099761275 
251680000   0.10347004 
251690000   0.10180277 
251700000   0.09958282 
251710000  0.095128499 
251720000   0.10381212 
251730000  0.095797046 
251740000  0.098338061 
251750000   0.10957765 
251760000   0.10070461 
251770000  0.091959103 
251780000   0.10383477 
251790000  0.097508307 
251800000  0.096844806 
251810000   0.10390785 
251820000  0.099608888 
251830000   0.10718949 
251840000     0.103931 
251850000  0.099581819 
251860000  0.095627663 
251870000   0.10274947 
251880000   0.10270847 
251890000   0.10351764 
251900000   0.10596995 
251910000   0.11205799 
251920000   0.10657035 
251930000   0.09383924 
251940000  0.099716755 
251950000  0.096120669 
251960000   0.10080424 
251970000  0.090982948 
251980000   0.10447514 
251990000   0.10688069 
252000000   0.10463608 
252010000  0.094401634 
252020000  0.098252924 
252030000    0.1005749 
252040000   0.10202396 
252050000  0.098863259 
252060000  0.097477286 
252070000   0.09763107 
252080000   0.10089254 
252090000  0.098523535 
252100000   0.10053052 
252110000  0.092792522 
252120000    0.1051177 
252130000  0.094557175 
252140000   0.10776817 
252150000   0.11291515 
252160000   0.10012623 
252170000  0.095254079 
252180000  0.099339306 
252190000    0.1114376 
252200000   0.10500846 
252210000   0.10189904 
252220000   0.09869417 
252230000  0.099751616 
252240000   0.10644576 
252250000  0.091733142 
252260000  0.098684363 
252270000  0.099614428 
252280000   0.10402207 
252290000  0.097126648 
252300000  0.088626648 
252310000   0.11116071 
252320000  0.098349534 
252330000  0.097602484 
252340000   0.10361178 
252350000   0.10281314 
252360000   0.10217446 
252370000  0.099969631 
252380000  0.095148492 
252390000   0.10066531 
252400000  0.098877095 
252410000   0.10590443 
252420000  0.096629565 
252430000    0.1043806 
252440000  0.098563337 
252450000  0.096510193 
252460000  0.096689182 
252470000  0.092622699 
252480000   0.10322812 
252490000   0.10305372 
252500000  0.090706843 
252510000   0.10104043 
252520000  0.097196997 
252530000   0.10560875 
252540000   0.09702533 
252550000   0.10169368 
252560000   0.10280759 
252570000    0.1031343 
252580000   0.10027254 
252590000  0.092510257 
252600000   0.10655973 
252610000   0.10447075 
252620000   0.10505194 
252630000   0.10325913 
252640000   0.11064101 
252650000   0.10330781 
252660000   0.10153366 
252670000   0.11004095 
252680000   0.10662323 
252690000   0.09821709 
252700000   0.10437083 
252710000   0.10990199 
252720000    0.1053825 
252730000   0.10447683 
252740000   0.10662869 
252750000  0.098261469 
252760000   0.10543597 
252770000  0.089696283 
252780000  0.099506907 
252790000  0.099813465 
252800000   0.10048568 
252810000   0.10188448 
252820000   0.10407322 
252830000  0.099422856 
252840000   0.09862457 
252850000  0.095853029 
252860000   0.11130987 
252870000  0.099894119 
252880000  0.099640368 
252890000  0.094564394 
252900000  0.095078145 
252910000     0.102205 
252920000  0.093705555 
252930000  0.096568465 
252940000  0.096279987 
252950000  0.094098979 
252960000  0.097273399 
252970000  0.093906893 
252980000   0.10232176 
252990000  0.095940925 
253000000  0.095173272 
253010000   0.10357749 
253020000   0.10636947 
253030000  0.091842329 
253040000   0.09716779 
253050000   0.10581097 
253060000  0.098555479 
253070000   0.10381137 
253080000   0.10079803 
253090000   0.10310197 
253100000   0.10164852 
253110000  0.098402298 
253120000  0.096196837 
253130000  0.099024803 
253140000   0.10064223 
253150000  0.099760005 
253160000  0.097354819 
253170000   0.11060722 
253180000  0.098638791 
253190000   0.10136762 
253200000   0.10038148 
253210000  0.094579678 
253220000   0.10018938 
253230000  0.099894709 
253240000   0.10111904 
253250000  0.096162206 
253260000   0.10177793 
253270000  0.099377978 
253280000  0.098787925 
253290000  0.089757842 
253300000  0.096310629 
253310000  0.094916182 
253320000   0.10127883 
253330000  0.094363149 
253340000   0.10179078 
253350000  0.099513613 
253360000  0.090270334 
253370000  0.097239182 
253380000   0.11103982 
253390000  0.097804653 
253400000   0.10336079 
253410000  0.098718017 
253420000   0.10305236 
253430000   0.10260217 
253440000   0.10636667 
253450000   0.10535907 
253460000   0.10665992 
253470000  0.093681271 
253480000   0.10771385 
253490000   0.10498322 
253500000    0.1017431 
253510000  0.099412748 
253520000  0.099495958 
253530000   0.10916449 
253540000  0.098483299 
253550000    0.1015384 
253560000  0.097249813 
253570000  0.088823696 
253580000  0.098990805 
253590000   0.10275106 
253600000  0.092325296 
253610000   0.10108615 
253620000  0.094702807 
253630000   0.10160456 
253640000   0.10116225 
253650000  0.098676032 
253660000  0.096797248 
253670000  0.099155238 
253680000  0.096116385 
253690000  0.099386065 
253700000  0.099420505 
253710000  0.093344225 
253720000   0.10085273 
253730000   0.10550902 
253740000   0.10072972 
253750000   0.10698944 
253760000  0.090937389 
253770000   0.09265018 
253780000   0.10206635 
253790000    0.1114357 
253800000   0.10400805 
253810000  0.092153181 
253820000   0.10187128 
253830000   0.10325723 
253840000   0.10298014 
253850000  0.098143129 
253860000  0.090149609 
253870000  0.095475217 
253880000   0.10457196 
253890000   0.10183161 
253900000  0.097785609 
253910000   0.10875662 
253920000  0.099489372 
253930000   0.10343251 
253940000   0.10226274 
253950000   0.08953215 
253960000   0.10248352 
253970000   0.10192986 
253980000   0.10070756 
253990000   0.10547314 
254000000  0.099094183 
254010000   0.10127354 
254020000    0.1031646 
254030000  0.099984664 
254040000   0.10907142 
254050000   0.10323754 
254060000   0.10890505 
254070000  0.096275121 
254080000  0.094982018 
254090000  0.090048248 
254100000  0.098410681 
254110000   0.09630388 
254120000   0.10042618 
254130000   0.10695456 
254140000   0.10235535 
254150000   0.10293864 
254160000  0.098708339 
254170000  0.098216175 
254180000   0.10450559 
254190000   0.10258668 
254200000  0.097597428 
254210000   0.10237988 
254220000  0.097064814 
254230000  0.093960023 
254240000  0.097644475 
254250000   0.10764004 
254260000  0.096317504 
254270000   0.09653516 
254280000   0.10175575 
254290000  0.094825722 
254300000   0.09861597 
254310000  0.094630102 
254320000   0.10170748 
254330000   0.10299658 
254340000   0.09445683 
254350000  0.097674264 
254360000   0.10463877 
254370000  0.099757278 
254380000  0.097219709 
254390000  0.097311493 
254400000    0.1103927 
254410000    0.1009263 
254420000  0.094563345 
254430000  0.098513361 
254440000   0.10587425 
254450000    0.1048035 
254460000   0.10612373 
254470000   0.10616103 
254480000  0.092030787 
254490000  0.097978292 
254500000  0.096142058 
254510000  0.097743286 
254520000   0.10241114 
254530000   0.10511327 
254540000   0.10373424 
254550000   0.10221083 
254560000   0.10829177 
254570000   0.09021095 
254580000  0.098563796 
254590000  0.095129249 
254600000  0.095909014 
254610000  0.092280463 
254620000   0.10107708 
254630000   0.10709814 
254640000  0.098202278 
254650000   0.10944615 
254660000   0.09889502 
254670000   0.10729275 
254680000  0.099846249 
254690000  0.092829924 
254700000   0.10205079 
254710000   0.10270985 
254720000  0.098327723 
254730000  0.095734253 
254740000   0.10554599 
254750000  0.097273891 
254760000   0.10030753 
254770000   0.09746026 
254780000    0.0996909 
254790000   0.10797147 
254800000   0.10386334 
254810000   0.10701283 
254820000   0.09666616 
254830000   0.10260334 
254840000  0.095722452 
254850000  0.099651474 
254860000   0.10490687 
254870000   0.10468342 
254880000   0.10616152 
254890000   0.10249802 
254900000   0.10669698 
254910000  0.098251599 
254920000   0.10778234 
254930000  0.096993656 
254940000  0.093256358 
254950000  0.090322835 
254960000  0.098259774 
254970000   0.10490951 
254980000   0.10594133 
254990000  0.096844161 
255000000  0.098764994 
255010000   0.10088843 
255020000   0.10354042 
255030000   0.09468371 
255040000   0.09796559 
255050000  0.096247607 
255060000   0.10257358 
255070000  0.098706106 
255080000   0.11144657 
255090000  0.098667674 
255100000  0.099119191 
255110000   0.10099746 
255120000   0.10994377 
255130000   0.10689402 
255140000  0.097455211 
255150000   0.10187267 
255160000   0.10858775 
255170000   0.10387233 
255180000   0.09913777 
255190000   0.10909166 
255200000    0.1002605 
255210000   0.11129093 
255220000  0.096327736 
255230000  0.095821613 
255240000  0.097602223 
255250000   0.10282446 
255260000  0.090037761 
255270000   0.10249297 
255280000   0.10952306 
255290000  0.095757306 
255300000   0.10701156 
255310000  0.091112217 
255320000   0.10719372 
255330000   0.09931967 
255340000   0.10127056 
255350000   0.10895502 
255360000   0.10575939 
255370000  0.096533829 
255380000   0.10584807 
255390000   0.10084167 
255400000  0.099334743 
255410000  0.094961469 
255420000  0.096037654 
255430000  0.098926404 
255440000  0.099348669 
255450000  0.093314303 
255460000   0.10143747 
255470000  0.097260835 
255480000   0.10362188 
255490000   0.10025804 
255500000  0.096456221 
255510000   0.10436376 
255520000  0.094896513 
255530000  0.099078383 
255540000   0.10444475 
255550000   0.10268726 
255560000    0.1045619 
255570000    0.1127371 
255580000     0.110196 
255590000   0.10510816 
255600000   0.10133824 
255610000   0.10576948 
255620000   0.10037567 
255630000   0.10218972 
255640000   0.10605085 
255650000    0.1013732 
255660000   0.10406728 
255670000  0.096362135 
255680000   0.09950881 
255690000   0.10912398 
255700000   0.10190068 
255710000  0.099429271 
255720000  0.093617149 
255730000  0.096429234 
255740000   0.10027082 
255750000   0.10364255 
255760000   0.10091335 
255770000  0.099103669 
255780000  0.098222542 
255790000   0.10782996 
255800000  0.097186756 
255810000   0.10168784 
255820000   0.10240623 
255830000  0.097618662 
255840000  0.095393025 
255850000   0.09957487 
255860000   0.10315454 
255870000  0.095789092 
255880000    0.1118215 
255890000  0.098505487 
255900000  0.098870292 
255910000   0.11123237 
255920000   0.10983836 
255930000   0.10144649 
255940000   0.10282817 
255950000   0.10785042 
255960000   0.10499436 
255970000  0.097130533 
255980000  0.094996084 
255990000   0.10364637 
256000000    0.1015726 
256010000  0.098199034 
256020000  0.094626767 
256030000  0.097431021 
256040000   0.10310562 
256050000  0.096482902 
256060000   0.10221839 
256070000   0.11117171 
256080000   0.10796041 
256090000   0.10428519 
256100000  0.097151514 
256110000     0.100529 
256120000   0.10679009 
256130000   0.10409228 
256140000   0.10787095 
256150000  0.097668222 
256160000   0.10095066 
256170000    0.1008221 
256180000  0.093192832 
256190000  0.096359404 
256200000  0.093913702 
256210000   0.10156449 
256220000  0.095405281 
256230000   0.10231353 
256240000  0.097460316 
256250000   0.10273957 
256260000  0.092856236 
256270000   0.10517232 
256280000  0.095296054 
256290000  0.096371457 
256300000   0.09972758 
256310000   0.09493376 
256320000  0.089441745 
256330000   0.10109477 
256340000   0.10108942 
256350000    0.1039774 
256360000  0.096269567 
256370000   0.10260008 
256380000  0.094930841 
256390000  0.097016262 
256400000   0.10310006 
256410000   0.10666745 
256420000   0.10459361 
256430000   0.09955743 
256440000   0.09600341 
256450000  0.095697738 
256460000  0.098060044 
256470000   0.10204078 
256480000   0.10081423 
256490000  0.096591016 
256500000  0.098722328