LAMMPS (29 Sep 2021 - Update 2)
WARNING: Write_data command requires newton on to preserve 3'->5' bond polarity (../atom_vec_oxdna.cpp:52)
WARNING: Atom style hybrid defines both, per-type and per-atom masses; both must be set, but only per-atom masses will be used (../atom_vec_hybrid.cpp:157)
Reading data file ...
  orthogonal box = (0.0000000 0.0000000 0.0000000) to (48.000000 48.000000 48.000000)
  1 by 1 by 1 MPI processor grid
  reading atoms ...
  290 atoms
  reading velocities ...
  290 velocities
  290 ellipsoids
  scanning bonds ...
  2 = max bonds/atom
  reading bonds ...
  284 bonds
Finding 1-2 1-3 1-4 neighbors ...
  special bond factors lj:    0        0        0       
  special bond factors coul:  0        0        0       
     2 = max # of 1-2 neighbors
     2 = max # of 1-3 neighbors
     4 = max # of 1-4 neighbors
     6 = max # of special neighbors
  special bonds CPU = 0.000 seconds
  read_data CPU = 0.009 seconds
Setting atom values ...
  290 settings made for mass
290 atoms in group all
Finding 1-2 1-3 1-4 neighbors ...
  special bond factors lj:    0        1        1       
  special bond factors coul:  0        0        0       
     2 = max # of 1-2 neighbors
     2 = max # of 1-3 neighbors
     4 = max # of 1-4 neighbors
     6 = max # of special neighbors
  special bonds CPU = 0.000 seconds
Neighbor list info ...
  update every 1 steps, delay 0 steps, check yes
  max neighbors/atom: 2000, page size: 100000
  master list distance cutoff = 6.2019411
  ghost atom cutoff = 6.2019411
  binsize = 3.1009705, bins = 16 16 16
  5 neighbor lists, perpetual/occasional/extra = 5 0 0
  (1) pair oxdna2/excv, perpetual
      attributes: half, newton off
      pair build: half/bin/newtoff
      stencil: full/bin/3d
      bin: standard
  (2) pair oxdna2/hbond, perpetual, copy from (1)
      attributes: half, newton off
      pair build: copy
      stencil: none
      bin: none
  (3) pair oxdna2/xstk, perpetual, copy from (1)
      attributes: half, newton off
      pair build: copy
      stencil: none
      bin: none
  (4) pair oxdna2/coaxstk, perpetual, copy from (1)
      attributes: half, newton off
      pair build: copy
      stencil: none
      bin: none
  (5) pair oxdna2/dh, perpetual, copy from (1)
      attributes: half, newton off
      pair build: copy
      stencil: none
      bin: none
Setting up Verlet run ...
  Unit style    : lj
  Current step  : 0
  Time step     : 0.001
WARNING: FENE bond too long: 0 28 27 1.1023224377669014 (../bond_oxdna_fene.cpp:209)
WARNING: FENE bond too long: 0 30 29 1.4044331619084167 (../bond_oxdna_fene.cpp:209)
WARNING: FENE bond too long: 0 77 76 1.2057213846300379 (../bond_oxdna_fene.cpp:209)
WARNING: FENE bond too long: 0 76 77 1.2057213846300376 (../bond_oxdna_fene.cpp:209)
WARNING: FENE bond too long: 0 79 78 1.3759505309066415 (../bond_oxdna_fene.cpp:209)
WARNING: FENE bond too long: 0 127 126 1.3027582305970207 (../bond_oxdna_fene.cpp:209)
WARNING: FENE bond too long: 0 172 171 1.0739495948876243 (../bond_oxdna_fene.cpp:209)
WARNING: FENE bond too long: 0 174 173 1.3747321806530517 (../bond_oxdna_fene.cpp:209)
WARNING: FENE bond too long: 0 220 219 1.098759602578234 (../bond_oxdna_fene.cpp:209)
WARNING: FENE bond too long: 0 219 220 1.0987596025782338 (../bond_oxdna_fene.cpp:209)
WARNING: FENE bond too long: 0 222 221 1.6234141622195064 (../bond_oxdna_fene.cpp:209)
WARNING: FENE bond too long: 0 271 270 1.1553378877036966 (../bond_oxdna_fene.cpp:209)
Per MPI rank memory allocation (min/avg/max) = 9.767 | 9.767 | 9.767 Mbytes
Step Temp 
       0            0 
WARNING: FENE bond too long: 1 28 27 1.1022000729521824 (../bond_oxdna_fene.cpp:209)
WARNING: FENE bond too long: 1 30 29 1.4043052908779596 (../bond_oxdna_fene.cpp:209)
WARNING: FENE bond too long: 1 77 76 1.2057977484142295 (../bond_oxdna_fene.cpp:209)
WARNING: FENE bond too long: 1 76 77 1.2057977484142293 (../bond_oxdna_fene.cpp:209)
WARNING: FENE bond too long: 1 79 78 1.3757682357460492 (../bond_oxdna_fene.cpp:209)
WARNING: FENE bond too long: 1 127 126 1.302753956098306 (../bond_oxdna_fene.cpp:209)
WARNING: FENE bond too long: 1 172 171 1.0737224002947257 (../bond_oxdna_fene.cpp:209)
WARNING: FENE bond too long: 1 174 173 1.3746794240042728 (../bond_oxdna_fene.cpp:209)
WARNING: FENE bond too long: 1 220 219 1.0986050099955207 (../bond_oxdna_fene.cpp:209)
WARNING: FENE bond too long: 1 219 220 1.098605009995522 (../bond_oxdna_fene.cpp:209)
WARNING: FENE bond too long: 1 222 221 1.6230563105524687 (../bond_oxdna_fene.cpp:209)
WARNING: FENE bond too long: 1 271 270 1.1552382819691336 (../bond_oxdna_fene.cpp:209)
WARNING: FENE bond too long: 2 28 27 1.1020126401252373 (../bond_oxdna_fene.cpp:209)
WARNING: FENE bond too long: 2 30 29 1.4038048312377445 (../bond_oxdna_fene.cpp:209)
WARNING: FENE bond too long: 2 77 76 1.205856498493219 (../bond_oxdna_fene.cpp:209)
WARNING: FENE bond too long: 2 76 77 1.2058564984932187 (../bond_oxdna_fene.cpp:209)
WARNING: FENE bond too long: 2 79 78 1.3749947745070772 (../bond_oxdna_fene.cpp:209)
WARNING: FENE bond too long: 2 127 126 1.3025439228328028 (../bond_oxdna_fene.cpp:209)
WARNING: FENE bond too long: 2 172 171 1.0736853422292099 (../bond_oxdna_fene.cpp:209)
WARNING: FENE bond too long: 2 174 173 1.374530770907948 (../bond_oxdna_fene.cpp:209)
WARNING: FENE bond too long: 2 220 219 1.0980037510371647 (../bond_oxdna_fene.cpp:209)
WARNING: FENE bond too long: 2 219 220 1.0980037510371614 (../bond_oxdna_fene.cpp:209)
WARNING: FENE bond too long: 2 222 221 1.6224490562446519 (../bond_oxdna_fene.cpp:209)
WARNING: FENE bond too long: 2 271 270 1.1552489614108317 (../bond_oxdna_fene.cpp:209)
WARNING: FENE bond too long: 3 28 27 1.1014816200768016 (../bond_oxdna_fene.cpp:209)
WARNING: FENE bond too long: 3 30 29 1.4032904460747897 (../bond_oxdna_fene.cpp:209)
WARNING: FENE bond too long: 3 77 76 1.2057806536869442 (../bond_oxdna_fene.cpp:209)
WARNING: FENE bond too long: 3 76 77 1.2057806536869444 (../bond_oxdna_fene.cpp:209)
WARNING: FENE bond too long: 3 79 78 1.374487964048299 (../bond_oxdna_fene.cpp:209)
WARNING: FENE bond too long: 3 127 126 1.3017898467775417 (../bond_oxdna_fene.cpp:209)
WARNING: FENE bond too long: 3 172 171 1.0734278306777705 (../bond_oxdna_fene.cpp:209)
WARNING: FENE bond too long: 3 174 173 1.373891713645527 (../bond_oxdna_fene.cpp:209)
WARNING: FENE bond too long: 3 220 219 1.0972934691905447 (../bond_oxdna_fene.cpp:209)
WARNING: FENE bond too long: 3 219 220 1.0972934691905447 (../bond_oxdna_fene.cpp:209)
WARNING: FENE bond too long: 3 222 221 1.6217453513979052 (../bond_oxdna_fene.cpp:209)
WARNING: FENE bond too long: 3 271 270 1.1555289770227912 (../bond_oxdna_fene.cpp:209)
WARNING: FENE bond too long: 4 28 27 1.1007423456768466 (../bond_oxdna_fene.cpp:209)
WARNING: FENE bond too long: 4 30 29 1.4023174395623415 (../bond_oxdna_fene.cpp:209)
WARNING: FENE bond too long: 4 77 76 1.2051999134468263 (../bond_oxdna_fene.cpp:209)
WARNING: FENE bond too long: 4 76 77 1.2051999134468263 (../bond_oxdna_fene.cpp:209)
WARNING: FENE bond too long: 4 79 78 1.3736734079052553 (../bond_oxdna_fene.cpp:209)
WARNING: FENE bond too long: 4 127 126 1.3009309829051285 (../bond_oxdna_fene.cpp:209)
WARNING: FENE bond too long: 4 172 171 1.072467246725808 (../bond_oxdna_fene.cpp:209)
WARNING: FENE bond too long: 4 174 173 1.3732110078678612 (../bond_oxdna_fene.cpp:209)
WARNING: FENE bond too long: 4 220 219 1.0962439013824186 (../bond_oxdna_fene.cpp:209)
WARNING: FENE bond too long: 4 219 220 1.0962439013824137 (../bond_oxdna_fene.cpp:209)
WARNING: FENE bond too long: 4 222 221 1.6206867692329152 (../bond_oxdna_fene.cpp:209)
WARNING: FENE bond too long: 4 271 270 1.155250470135497 (../bond_oxdna_fene.cpp:209)
WARNING: FENE bond too long: 5 28 27 1.099847695876966 (../bond_oxdna_fene.cpp:209)
WARNING: FENE bond too long: 5 30 29 1.4011028512017782 (../bond_oxdna_fene.cpp:209)
WARNING: FENE bond too long: 5 77 76 1.2044077592962805 (../bond_oxdna_fene.cpp:209)
WARNING: FENE bond too long: 5 76 77 1.204407759296281 (../bond_oxdna_fene.cpp:209)
WARNING: FENE bond too long: 5 79 78 1.372543389972406 (../bond_oxdna_fene.cpp:209)
WARNING: FENE bond too long: 5 127 126 1.299781702053994 (../bond_oxdna_fene.cpp:209)
WARNING: FENE bond too long: 5 172 171 1.0716243101851486 (../bond_oxdna_fene.cpp:209)
WARNING: FENE bond too long: 5 174 173 1.372910661346459 (../bond_oxdna_fene.cpp:209)
WARNING: FENE bond too long: 5 220 219 1.0954667934825508 (../bond_oxdna_fene.cpp:209)
WARNING: FENE bond too long: 5 219 220 1.095466793482552 (../bond_oxdna_fene.cpp:209)
WARNING: FENE bond too long: 5 222 221 1.619611826891468 (../bond_oxdna_fene.cpp:209)
WARNING: FENE bond too long: 5 271 270 1.1545642182017664 (../bond_oxdna_fene.cpp:209)
WARNING: FENE bond too long: 6 28 27 1.099198976882883 (../bond_oxdna_fene.cpp:209)
WARNING: FENE bond too long: 6 30 29 1.3996938533979089 (../bond_oxdna_fene.cpp:209)
WARNING: FENE bond too long: 6 77 76 1.2035933904877265 (../bond_oxdna_fene.cpp:209)
WARNING: FENE bond too long: 6 76 77 1.2035933904877272 (../bond_oxdna_fene.cpp:209)
WARNING: FENE bond too long: 6 79 78 1.3711428757384594 (../bond_oxdna_fene.cpp:209)
WARNING: FENE bond too long: 6 127 126 1.2988765886413816 (../bond_oxdna_fene.cpp:209)
WARNING: FENE bond too long: 6 172 171 1.0706155490895402 (../bond_oxdna_fene.cpp:209)
WARNING: FENE bond too long: 6 174 173 1.3718466850768425 (../bond_oxdna_fene.cpp:209)
WARNING: FENE bond too long: 6 220 219 1.0946170707813732 (../bond_oxdna_fene.cpp:209)
WARNING: FENE bond too long: 6 219 220 1.0946170707813716 (../bond_oxdna_fene.cpp:209)
WARNING: FENE bond too long: 6 222 221 1.6181971205589483 (../bond_oxdna_fene.cpp:209)
WARNING: FENE bond too long: 6 271 270 1.15329324601075 (../bond_oxdna_fene.cpp:209)
WARNING: FENE bond too long: 7 28 27 1.0986844528822082 (../bond_oxdna_fene.cpp:209)
WARNING: FENE bond too long: 7 30 29 1.3981838936656388 (../bond_oxdna_fene.cpp:209)
WARNING: FENE bond too long: 7 77 76 1.2026444792516005 (../bond_oxdna_fene.cpp:209)
WARNING: FENE bond too long: 7 76 77 1.2026444792516 (../bond_oxdna_fene.cpp:209)
WARNING: FENE bond too long: 7 79 78 1.3698298366274217 (../bond_oxdna_fene.cpp:209)
WARNING: FENE bond too long: 7 127 126 1.2980440785031502 (../bond_oxdna_fene.cpp:209)
WARNING: FENE bond too long: 7 172 171 1.0696984783575372 (../bond_oxdna_fene.cpp:209)
WARNING: FENE bond too long: 7 174 173 1.3706399473995137 (../bond_oxdna_fene.cpp:209)
WARNING: FENE bond too long: 7 220 219 1.0936320050819568 (../bond_oxdna_fene.cpp:209)
WARNING: FENE bond too long: 7 219 220 1.093632005081954 (../bond_oxdna_fene.cpp:209)
WARNING: FENE bond too long: 7 222 221 1.6164510760521031 (../bond_oxdna_fene.cpp:209)
WARNING: FENE bond too long: 7 271 270 1.1519085362825885 (../bond_oxdna_fene.cpp:209)
WARNING: FENE bond too long: 8 28 27 1.0976444838016548 (../bond_oxdna_fene.cpp:209)
WARNING: FENE bond too long: 8 30 29 1.3967552246007884 (../bond_oxdna_fene.cpp:209)
WARNING: Too many warnings: 1516 vs 100. All future warnings will be suppressed (../thermo.cpp:422)
   10000  0.092829222 
   20000   0.10066322 
   30000  0.099156255 
   40000  0.095173658 
   50000   0.10276625 
   60000   0.10497522 
   70000  0.098637731 
   80000   0.09987411 
   90000   0.09840705 
  100000   0.10553092 
  110000  0.094394939 
  120000  0.095325353 
  130000  0.093329992 
  140000   0.10628116 
  150000   0.10147602 
  160000  0.096258499 
  170000  0.096369687 
  180000  0.099400928 
  190000   0.10248275 
  200000   0.10483329 
  210000  0.099807772 
  220000  0.096186958 
  230000  0.095316309 
  240000   0.10169029 
  250000  0.099078594 
  260000  0.096585141 
  270000   0.09687876 
  280000   0.10591314 
  290000  0.094989743 
  300000  0.093692889 
  310000   0.10758488 
  320000   0.10191798 
  330000   0.10407203 
  340000  0.098251231 
  350000  0.095459668 
  360000   0.10168485 
  370000  0.098697152 
  380000  0.099799249 
  390000  0.097901834 
  400000   0.10081811 
  410000   0.10054463 
  420000  0.096294957 
  430000   0.10292338 
  440000   0.10021187 
  450000  0.097221306 
  460000   0.10757577 
  470000   0.10420149 
  480000   0.10331208 
  490000   0.10792202 
  500000  0.094299631 
  510000   0.10421001 
  520000    0.1081062 
  530000  0.096467827 
  540000  0.099196006 
  550000   0.10393916 
  560000   0.10469585 
  570000  0.096470711 
  580000   0.10256535 
  590000  0.097147697 
  600000  0.099345273 
  610000  0.099556579 
  620000  0.090559887 
  630000  0.096693155 
  640000  0.099605815 
  650000   0.09485849 
  660000   0.10092082 
  670000  0.098196912 
  680000   0.10234795 
  690000   0.10133636 
  700000   0.10829272 
  710000  0.091265034 
  720000   0.10680753 
  730000  0.097402992 
  740000    0.1024535 
  750000  0.089974574 
  760000    0.1028822 
  770000  0.095958268 
  780000   0.10110175 
  790000  0.095881184 
  800000   0.10063896 
  810000  0.093559889 
  820000  0.094117036 
  830000   0.10261804 
  840000   0.10171943 
  850000   0.10291213 
  860000  0.098394448 
  870000  0.099133273 
  880000  0.093552684 
  890000  0.099621582 
  900000  0.094828086 
  910000   0.10326124 
  920000  0.095456636 
  930000   0.10126343 
  940000  0.097161469 
  950000   0.10399163 
  960000  0.095004697 
  970000    0.1003681 
  980000   0.10055233 
  990000   0.10265343 
 1000000   0.10274775 
 1010000  0.099980751 
 1020000   0.10241848 
 1030000  0.097216235 
 1040000   0.10514642 
 1050000   0.10452457 
 1060000  0.099494317 
 1070000   0.10634153 
 1080000   0.10007348 
 1090000  0.093092041 
 1100000   0.10616419 
 1110000   0.10669417 
 1120000    0.0992713 
 1130000   0.10090893 
 1140000  0.098018184 
 1150000  0.098361443 
 1160000   0.10150338 
 1170000  0.098938596 
 1180000   0.10312107 
 1190000  0.094440196 
 1200000   0.10729754 
 1210000   0.09761257 
 1220000  0.091381947 
 1230000   0.11346311 
 1240000   0.10040783 
 1250000   0.10126863 
 1260000   0.10467096 
 1270000  0.094619025 
 1280000  0.095947928 
 1290000  0.097874652 
 1300000   0.10136118 
 1310000   0.10689533 
 1320000   0.10001038 
 1330000  0.094000881 
 1340000  0.096035753 
 1350000   0.10239297 
 1360000  0.090501474 
 1370000   0.10410651 
 1380000  0.099994097 
 1390000  0.099638349 
 1400000   0.10261327 
 1410000   0.10017279 
 1420000   0.10193083 
 1430000   0.10554172 
 1440000  0.094646852 
 1450000  0.096463844 
 1460000  0.099679008 
 1470000   0.09909675 
 1480000     0.100992 
 1490000  0.099916321 
 1500000    0.1109058 
 1510000   0.09594588 
 1520000    0.1051068 
 1530000   0.10902536 
 1540000  0.095188722 
 1550000   0.10365056 
 1560000   0.10392278 
 1570000   0.10269304 
 1580000   0.10318066 
 1590000  0.098595637 
 1600000   0.10115006 
 1610000   0.10491534 
 1620000   0.10486602 
 1630000   0.10384454 
 1640000    0.1006801 
 1650000  0.099794244 
 1660000  0.093336375 
 1670000  0.096862381 
 1680000  0.099017627 
 1690000  0.093711454 
 1700000   0.10186651 
 1710000   0.10501636 
 1720000  0.094433702 
 1730000   0.10097584 
 1740000   0.10803559 
 1750000  0.096020878 
 1760000  0.096994657 
 1770000   0.10065825 
 1780000    0.1090164 
 1790000  0.097279021 
 1800000  0.093668876 
 1810000   0.10578066 
 1820000   0.10660081 
 1830000  0.098349399 
 1840000  0.096060155 
 1850000   0.10642761 
 1860000   0.10472633 
 1870000  0.098407098 
 1880000  0.099629692 
 1890000      0.09598 
 1900000  0.098616704 
 1910000  0.096836842 
 1920000  0.099715033 
 1930000   0.10019366 
 1940000  0.099214813 
 1950000   0.10450945 
 1960000  0.095557266 
 1970000   0.10049542 
 1980000   0.10847289 
 1990000  0.099564227 
 2000000   0.10458362 
 2010000  0.094296696 
 2020000  0.098917443 
 2030000   0.09637026 
 2040000   0.10331486 
 2050000   0.09696945 
 2060000  0.098456266 
 2070000   0.10532828 
 2080000  0.098553487 
 2090000  0.095486853 
 2100000   0.10163125 
 2110000  0.098031638 
 2120000    0.1003897 
 2130000  0.099525546 
 2140000   0.10189429 
 2150000  0.094377589 
 2160000   0.10104375 
 2170000   0.10240795 
 2180000  0.097449347 
 2190000   0.09193351 
 2200000  0.097362306 
 2210000  0.094551426 
 2220000   0.10256139 
 2230000   0.10011159 
 2240000   0.09417983 
 2250000   0.10058102 
 2260000   0.10342361 
 2270000  0.093747763 
 2280000  0.096710362 
 2290000    0.1070987 
 2300000  0.095968846 
 2310000   0.10475217 
 2320000   0.10203786 
 2330000   0.10310644 
 2340000  0.097983206 
 2350000   0.10123659 
 2360000   0.10337696 
 2370000  0.095969222 
 2380000  0.092930892 
 2390000   0.10562301 
 2400000  0.094481115 
 2410000   0.10272273 
 2420000  0.098461861 
 2430000   0.10309425 
 2440000   0.10232416 
 2450000   0.10166932 
 2460000   0.10430943 
 2470000   0.10437889 
 2480000  0.088493458 
 2490000   0.11096331 
 2500000   0.10164096 
 2510000   0.10424206 
 2520000  0.094536545 
 2530000   0.10477143 
 2540000   0.11117237 
 2550000  0.096871892 
 2560000  0.095481001 
 2570000  0.099401336 
 2580000   0.10768115 
 2590000   0.10483365 
 2600000   0.10592709 
 2610000  0.091505899 
 2620000   0.10410638 
 2630000   0.10337222 
 2640000   0.10551895 
 2650000  0.096089517 
 2660000   0.10326334 
 2670000  0.088699838 
 2680000  0.098145256 
 2690000   0.10672774 
 2700000  0.099897712 
 2710000  0.095878463 
 2720000  0.097406503 
 2730000   0.10115539 
 2740000   0.10465523 
 2750000   0.10555385 
 2760000   0.10320707 
 2770000   0.10486419 
 2780000  0.095166104 
 2790000   0.10028242 
 2800000   0.10052671 
 2810000  0.094070199 
 2820000  0.098520185 
 2830000  0.098147061 
 2840000   0.10691281 
 2850000  0.096483651 
 2860000  0.092159815 
 2870000   0.10018147 
 2880000  0.099773173 
 2890000  0.091116448 
 2900000   0.10922543 
 2910000  0.099860833 
 2920000   0.10114861 
 2930000   0.10389957 
 2940000  0.092629796 
 2950000   0.10381621 
 2960000  0.098989607 
 2970000   0.09718395 
 2980000    0.1125208 
 2990000   0.10130349 
 3000000  0.092393999 
 3010000   0.10388965 
 3020000   0.10513184 
 3030000    0.1092457 
 3040000    0.1063192 
 3050000  0.099807654 
 3060000   0.10504194 
 3070000    0.1024228 
 3080000   0.09368609 
 3090000   0.10003947 
 3100000  0.091659589 
 3110000  0.095972642 
 3120000   0.10045115 
 3130000  0.094720423 
 3140000  0.099878337 
 3150000   0.10573835 
 3160000     0.101317 
 3170000   0.10201305 
 3180000  0.096558032 
 3190000   0.10757102 
 3200000   0.10133972 
 3210000  0.098794366 
 3220000  0.097793683 
 3230000   0.09929142 
 3240000  0.091384069 
 3250000    0.1040007 
 3260000  0.098792752 
 3270000   0.10334501 
 3280000  0.095992755 
 3290000  0.099289509 
 3300000  0.096494111 
 3310000    0.1005817 
 3320000  0.095199459 
 3330000  0.090228462 
 3340000  0.096758582 
 3350000  0.099462587 
 3360000   0.10441222 
 3370000   0.10445203 
 3380000   0.10050878 
 3390000  0.093810014 
 3400000   0.10223682 
 3410000  0.095075127 
 3420000  0.095745536 
 3430000   0.10111438 
 3440000   0.10896555 
 3450000   0.10396053 
 3460000  0.097635897 
 3470000  0.098390134 
 3480000  0.094799745 
 3490000  0.092793057 
 3500000  0.091712436 
 3510000   0.09585154 
 3520000  0.099278161 
 3530000  0.096233106 
 3540000   0.10595361 
 3550000  0.093294041 
 3560000    0.1081979 
 3570000    0.1079086 
 3580000  0.098656962 
 3590000  0.099920354 
 3600000   0.10397596 
 3610000  0.093553222 
 3620000  0.098487411 
 3630000  0.090618192 
 3640000   0.10153405 
 3650000   0.10014573 
 3660000    0.0980973 
 3670000   0.10638772 
 3680000    0.1007422 
 3690000   0.09412022 
 3700000  0.095763788 
 3710000   0.10246733 
 3720000  0.099838762 
 3730000  0.095249913 
 3740000  0.099952237 
 3750000   0.10569293 
 3760000  0.099876822 
 3770000  0.096982719 
 3780000  0.098277691 
 3790000   0.10325114 
 3800000   0.10568386 
 3810000  0.089444483 
 3820000   0.10591573 
 3830000  0.094303973 
 3840000   0.09489089 
 3850000   0.10463927 
 3860000  0.092884633 
 3870000   0.10196905 
 3880000    0.1010703 
 3890000   0.10511066 
 3900000  0.097161025 
 3910000   0.10632706 
 3920000   0.11335601 
 3930000  0.096549057 
 3940000   0.09696498 
 3950000    0.0965465 
 3960000  0.095030357 
 3970000   0.10219447 
 3980000  0.099668683 
 3990000  0.089542091 
 4000000   0.10316519 
 4010000   0.10491608 
 4020000  0.094063859 
 4030000  0.097879149 
 4040000  0.097262501 
 4050000   0.10752294 
 4060000  0.096619623 
 4070000   0.10208233 
 4080000    0.1051229 
 4090000   0.10507102 
 4100000  0.093440221 
 4110000   0.10027987 
 4120000   0.10330073 
 4130000   0.10186917 
 4140000  0.098659284 
 4150000  0.094979626 
 4160000   0.10332735 
 4170000   0.09841913 
 4180000  0.097806595 
 4190000   0.10563434 
 4200000   0.10147528 
 4210000   0.10419789 
 4220000  0.091413912 
 4230000  0.091419137 
 4240000   0.09790856 
 4250000  0.093722997 
 4260000   0.10298607 
 4270000  0.094560379 
 4280000   0.10047785 
 4290000  0.097828359 
 4300000   0.09378269 
 4310000   0.10276113 
 4320000   0.10346765 
 4330000  0.099927303 
 4340000  0.091240048 
 4350000  0.088715459 
 4360000  0.093659902 
 4370000  0.099594028 
 4380000    0.1088548 
 4390000  0.096867725 
 4400000  0.098851086 
 4410000   0.10849871 
 4420000   0.10004201 
 4430000   0.10070375 
 4440000   0.10137624 
 4450000  0.091818041 
 4460000  0.093744097 
 4470000   0.10889129 
 4480000  0.099902598 
 4490000  0.097979022 
 4500000    0.0973449 
 4510000  0.094353693 
 4520000   0.10420587 
 4530000  0.098556244 
 4540000   0.10130792 
 4550000   0.10514637 
 4560000   0.09235771 
 4570000   0.09925845 
 4580000  0.095951313 
 4590000   0.10041749 
 4600000  0.095781618 
 4610000   0.10172166 
 4620000    0.1089353 
 4630000   0.10576688 
 4640000   0.09713914 
 4650000   0.10392525 
 4660000   0.10089759 
 4670000   0.10146001 
 4680000  0.099948144 
 4690000  0.099906371 
 4700000   0.10578311 
 4710000   0.11469034 
 4720000  0.096209649 
 4730000  0.094121741 
 4740000  0.092236971 
 4750000   0.10723871 
 4760000    0.1002403 
 4770000  0.098246663 
 4780000  0.090674102 
 4790000  0.099029666 
 4800000  0.093485196 
 4810000  0.096475554 
 4820000   0.10550799 
 4830000   0.10642585 
 4840000  0.099583283 
 4850000    0.1157762 
 4860000  0.099156772 
 4870000  0.095801385 
 4880000   0.10606383 
 4890000  0.094729167 
 4900000   0.10814631 
 4910000   0.09222046 
 4920000  0.099880263 
 4930000   0.10494976 
 4940000  0.090647252 
 4950000   0.09980567 
 4960000   0.10748668 
 4970000  0.099166585 
 4980000  0.098981803 
 4990000  0.094398545 
 5000000   0.09758684 
 5010000   0.09754198 
 5020000   0.10067817 
 5030000   0.10287171 
 5040000  0.095892353 
 5050000  0.094374044 
 5060000   0.10323755 
 5070000   0.10118178 
 5080000  0.098507712 
 5090000   0.10228885 
 5100000  0.093186693 
 5110000   0.10694226 
 5120000   0.10643098 
 5130000   0.10501966 
 5140000  0.099955597 
 5150000   0.10246551 
 5160000   0.10940861 
 5170000   0.10121856 
 5180000  0.096531513 
 5190000  0.098439839 
 5200000  0.099662238 
 5210000   0.09539603 
 5220000  0.099874306 
 5230000   0.10486112 
 5240000   0.10666191 
 5250000    0.1020246 
 5260000    0.1001947 
 5270000   0.10143315 
 5280000  0.097229402 
 5290000   0.10194754 
 5300000   0.10791746 
 5310000  0.099811288 
 5320000  0.099521426 
 5330000   0.10218771 
 5340000   0.10179829 
 5350000  0.097375442 
 5360000   0.10035617 
 5370000  0.097224139 
 5380000   0.10563423 
 5390000  0.098048508 
 5400000   0.10474613 
 5410000   0.10491734 
 5420000   0.10022003 
 5430000  0.098533085 
 5440000   0.10110545 
 5450000  0.094037689 
 5460000   0.10267148 
 5470000  0.093194377 
 5480000   0.10285732 
 5490000   0.10262891 
 5500000   0.10319061 
 5510000   0.10114329 
 5520000  0.095079817 
 5530000   0.10544098 
 5540000  0.098331561 
 5550000  0.097591157 
 5560000  0.088389294 
 5570000  0.098868201 
 5580000  0.092562666 
 5590000  0.093895205 
 5600000    0.1039881 
 5610000   0.09614094 
 5620000   0.10174703 
 5630000  0.091511399 
 5640000  0.098415524 
 5650000   0.10990649 
 5660000   0.10628215 
 5670000   0.10028594 
 5680000   0.10099654 
 5690000  0.097201617 
 5700000   0.10291368 
 5710000   0.10953382 
 5720000   0.10695972 
 5730000  0.099408828 
 5740000  0.094870242 
 5750000  0.099183933 
 5760000   0.11375477 
 5770000  0.098867526 
 5780000  0.097662767 
 5790000  0.098449731 
 5800000  0.091728279 
 5810000   0.10987317 
 5820000    0.1005645 
 5830000   0.10019836 
 5840000  0.090132597 
 5850000   0.09612975 
 5860000   0.10292907 
 5870000  0.098096035 
 5880000   0.10029897 
 5890000   0.10158366 
 5900000  0.099755073 
 5910000    0.1046827 
 5920000  0.098178845 
 5930000   0.10668816 
 5940000  0.093649663 
 5950000  0.092595722 
 5960000  0.099410213 
 5970000  0.099940061 
 5980000   0.10829901 
 5990000   0.10197632 
 6000000  0.096088476 
 6010000   0.09936745 
 6020000  0.093157756 
 6030000   0.10203198 
 6040000  0.099431739 
 6050000   0.10051891 
 6060000   0.10146662 
 6070000  0.097144075 
 6080000   0.11525134 
 6090000   0.10552103 
 6100000   0.10564609 
 6110000  0.091882743 
 6120000   0.10299188 
 6130000  0.095752916 
 6140000    0.1014549 
 6150000   0.10317747 
 6160000   0.09709108 
 6170000   0.10218576 
 6180000   0.10165264 
 6190000   0.09900638 
 6200000  0.097994442 
 6210000   0.10371874 
 6220000   0.10857211 
 6230000  0.098614432 
 6240000  0.098260943 
 6250000  0.099057534 
 6260000  0.097018288 
 6270000  0.095880941 
 6280000   0.10212896 
 6290000  0.094582269 
 6300000   0.10309276 
 6310000   0.10183156 
 6320000   0.10301024 
 6330000   0.10301509 
 6340000  0.098701738 
 6350000    0.1017543 
 6360000   0.09123577 
 6370000  0.098770581 
 6380000   0.10303766 
 6390000   0.11070943 
 6400000  0.095400074 
 6410000   0.10131439 
 6420000   0.10113201 
 6430000  0.097653043 
 6440000   0.10240346 
 6450000   0.10410695 
 6460000  0.096727257 
 6470000  0.094533551 
 6480000  0.097022482 
 6490000  0.094574215 
 6500000   0.09692554 
 6510000   0.10029803 
 6520000  0.097027089 
 6530000   0.10119461 
 6540000   0.10165613 
 6550000   0.10237192 
 6560000   0.09550558 
 6570000   0.10604138 
 6580000   0.10007035 
 6590000   0.10779097 
 6600000   0.10911605 
 6610000  0.096126669 
 6620000    0.1069179 
 6630000   0.10257135 
 6640000   0.10011418 
 6650000  0.094447435 
 6660000   0.10028727 
 6670000   0.10054277 
 6680000  0.098487877 
 6690000   0.10453458 
 6700000   0.10073628 
 6710000  0.095312534 
 6720000    0.1023391 
 6730000   0.10080074 
 6740000   0.10333879 
 6750000  0.095987213 
 6760000  0.094608021 
 6770000   0.09210471 
 6780000  0.096364641 
 6790000   0.10382021 
 6800000   0.10149357 
 6810000   0.10728247 
 6820000  0.097944417 
 6830000  0.099392985 
 6840000   0.10474754 
 6850000   0.10485768 
 6860000   0.10498475 
 6870000   0.10704954 
 6880000   0.09568246 
 6890000  0.094130629 
 6900000  0.099268292 
 6910000   0.10599926 
 6920000  0.099488397 
 6930000   0.10433842 
 6940000  0.097370573 
 6950000   0.10457116 
 6960000   0.10196834 
 6970000  0.098012785 
 6980000   0.10168659 
 6990000   0.10081709 
 7000000  0.095959861 
 7010000   0.10522911 
 7020000  0.097784293 
 7030000   0.10395452 
 7040000  0.097703529 
 7050000   0.10042734 
 7060000   0.10136702 
 7070000  0.098370538 
 7080000  0.099881202 
 7090000   0.10102811 
 7100000   0.09819926 
 7110000  0.099697667 
 7120000  0.098303159 
 7130000  0.099361276 
 7140000   0.09506467 
 7150000  0.095640232 
 7160000   0.10092577 
 7170000  0.097170371 
 7180000   0.10103439 
 7190000   0.09731303 
 7200000  0.096939226 
 7210000  0.096733079 
 7220000   0.10672925 
 7230000   0.09700102 
 7240000   0.10551848 
 7250000  0.098690348 
 7260000   0.10161758 
 7270000      0.10406 
 7280000   0.10723151 
 7290000  0.099136997 
 7300000   0.10436055 
 7310000   0.10094447 
 7320000   0.10660273 
 7330000  0.096526381 
 7340000   0.10382212 
 7350000   0.10231023 
 7360000    0.1003984 
 7370000   0.10205324 
 7380000  0.096774671 
 7390000  0.094610306 
 7400000   0.10317863 
 7410000   0.09739033 
 7420000   0.10353689 
 7430000    0.1027453 
 7440000  0.098065069 
 7450000  0.092705865 
 7460000  0.095678158 
 7470000   0.09879957 
 7480000   0.09772345 
 7490000   0.11194003 
 7500000   0.10636919 
 7510000   0.10251167 
 7520000   0.10015608 
 7530000   0.10259856 
 7540000   0.10455124 
 7550000   0.10117362 
 7560000   0.10187302 
 7570000   0.10260969 
 7580000   0.09759166 
 7590000   0.10455709 
 7600000   0.10957249 
 7610000   0.10157202 
 7620000   0.10388531 
 7630000  0.093762649 
 7640000  0.098812602 
 7650000   0.10584849 
 7660000   0.10392682 
 7670000  0.095461202 
 7680000  0.096644613 
 7690000  0.091450422 
 7700000   0.09823193 
 7710000   0.10273273 
 7720000  0.098885579 
 7730000  0.097402735 
 7740000  0.097170444 
 7750000   0.10276704 
 7760000   0.10677101 
 7770000  0.095109785 
 7780000  0.093059632 
 7790000  0.098298547 
 7800000  0.098475779 
 7810000  0.093902837 
 7820000   0.10273351 
 7830000   0.10275554 
 7840000   0.10610102 
 7850000   0.10098341 
 7860000  0.098584075 
 7870000   0.10467043 
 7880000   0.10545045 
 7890000   0.10892354 
 7900000  0.097769108 
 7910000  0.095915788 
 7920000    0.1052458 
 7930000   0.10335404 
 7940000  0.098345793 
 7950000  0.096260291 
 7960000  0.098375632 
 7970000   0.10316612 
 7980000  0.096784238 
 7990000    0.1023584 
 8000000  0.095566152 
 8010000   0.10505472 
 8020000   0.10211235 
 8030000   0.10526441 
 8040000   0.10515871 
 8050000  0.097521095 
 8060000   0.10039299 
 8070000  0.099208208 
 8080000   0.10395028 
 8090000  0.094932321 
 8100000    0.1067926 
 8110000  0.099960175 
 8120000   0.10913318 
 8130000  0.094680719 
 8140000  0.094418018 
 8150000   0.09985317 
 8160000  0.097230574 
 8170000  0.092196356 
 8180000   0.10153083 
 8190000  0.099351579 
 8200000  0.096001502 
 8210000   0.10070289 
 8220000   0.10263106 
 8230000    0.1002322 
 8240000   0.10140564 
 8250000  0.099100187 
 8260000  0.096744914 
 8270000   0.10970695 
 8280000   0.10767146 
 8290000   0.10030875 
 8300000  0.097048338 
 8310000  0.096816864 
 8320000  0.093639703 
 8330000   0.10013449 
 8340000  0.096135987 
 8350000   0.11639525 
 8360000  0.098733669 
 8370000  0.097393467 
 8380000  0.099682161 
 8390000  0.091735805 
 8400000   0.11273812 
 8410000   0.10213596 
 8420000   0.10429895 
 8430000   0.10345698 
 8440000   0.10246137 
 8450000   0.10559718 
 8460000   0.10668218 
 8470000  0.099924087 
 8480000   0.10212416 
 8490000   0.10358541 
 8500000   0.10048875 
 8510000  0.097358927 
 8520000   0.10868448 
 8530000  0.098853994 
 8540000   0.09407426 
 8550000  0.099278735 
 8560000   0.10083921 
 8570000   0.09890521 
 8580000  0.098915485 
 8590000  0.093981115 
 8600000  0.096202319 
 8610000   0.10592098 
 8620000   0.10423854 
 8630000  0.099724216 
 8640000   0.10361978 
 8650000   0.10240472 
 8660000  0.093005154 
 8670000   0.10921912 
 8680000   0.10341838 
 8690000   0.10848643 
 8700000   0.10133433 
 8710000   0.10617359 
 8720000   0.10401108 
 8730000  0.095304623 
 8740000  0.092469536 
 8750000  0.096287571 
 8760000  0.092148818 
 8770000    0.1031385 
 8780000  0.090916312 
 8790000  0.098967529 
 8800000   0.10178309 
 8810000   0.10148902 
 8820000  0.097968417 
 8830000    0.1148054 
 8840000    0.1042443 
 8850000   0.11055464 
 8860000  0.096380871 
 8870000  0.096936684 
 8880000   0.09965195 
 8890000    0.1090128 
 8900000    0.1072836 
 8910000   0.09900384 
 8920000    0.0952193 
 8930000  0.098669245 
 8940000   0.10474973 
 8950000  0.096940352 
 8960000   0.10259697 
 8970000  0.094500487 
 8980000   0.10204218 
 8990000  0.091667102 
 9000000   0.10409645 
 9010000  0.092826238 
 9020000  0.097089803 
 9030000  0.092077578 
 9040000  0.097515183 
 9050000   0.10651081 
 9060000  0.097375357 
 9070000  0.096846875 
 9080000  0.093451469 
 9090000   0.10895436 
 9100000   0.10075501 
 9110000    0.1096164 
 9120000   0.10298617 
 9130000  0.096675053 
 9140000   0.10106979 
 9150000   0.10391684 
 9160000  0.099054465 
 9170000   0.10192937 
 9180000   0.10169378 
 9190000   0.09856975 
 9200000  0.095033186 
 9210000  0.098806869 
 9220000   0.10564768 
 9230000  0.095886053 
 9240000     0.102797 
 9250000  0.094095174 
 9260000  0.092061233 
 9270000  0.096972096 
 9280000   0.09908342 
 9290000    0.1051657 
 9300000   0.10709785 
 9310000  0.094608773 
 9320000   0.10214951 
 9330000   0.10200886 
 9340000   0.10823775 
 9350000  0.094453263 
 9360000  0.094654145 
 9370000   0.10154028 
 9380000   0.11094896 
 9390000  0.095969395 
 9400000   0.10053077 
 9410000   0.10017235 
 9420000   0.10067934 
 9430000   0.10792978 
 9440000  0.097079886 
 9450000  0.094691619 
 9460000  0.094388997 
 9470000  0.099236865 
 9480000  0.098864493 
 9490000  0.091846263 
 9500000   0.10162246 
 9510000   0.10780372 
 9520000  0.093736021 
 9530000  0.095787797 
 9540000  0.095314434 
 9550000   0.10235972 
 9560000   0.09526397 
 9570000  0.092920608 
 9580000   0.10189563 
 9590000  0.090579334 
 9600000  0.098397623 
 9610000   0.10103249 
 9620000    0.1010952 
 9630000   0.09913918 
 9640000   0.10334009 
 9650000   0.10550299 
 9660000   0.10051178 
 9670000  0.091330543 
 9680000    0.1006998 
 9690000   0.10034243 
 9700000  0.097760121 
 9710000   0.09969405 
 9720000  0.094288797 
 9730000   0.10011648 
 9740000  0.096774313 
 9750000   0.09890417 
 9760000   0.10284682 
 9770000   0.10034006 
 9780000  0.099396945 
 9790000   0.10162009 
 9800000  0.097399517 
 9810000  0.099058751 
 9820000   0.10139906 
 9830000   0.10064939 
 9840000    0.1010047 
 9850000   0.10083154 
 9860000  0.096572298 
 9870000   0.10840664 
 9880000   0.10498725 
 9890000   0.10109612 
 9900000  0.098609522 
 9910000  0.095335606 
 9920000   0.10043395 
 9930000  0.094417842 
 9940000     0.101612 
 9950000  0.087433559 
 9960000  0.098711859 
 9970000   0.10491232 
 9980000   0.10263043 
 9990000   0.10209362 
10000000  0.097810509 
10010000   0.09530929 
10020000  0.097623494 
10030000   0.10039013 
10040000  0.099756051 
10050000  0.094355654 
10060000  0.098776169 
10070000   0.10623758 
10080000  0.095220613 
10090000   0.11062238 
10100000  0.094011143 
10110000  0.093344624 
10120000   0.10694833 
10130000    0.1019558 
10140000  0.092495539 
10150000   0.10385757 
10160000   0.11179119 
10170000   0.09894075 
10180000   0.11063579 
10190000  0.095753345 
10200000  0.097545914 
10210000   0.10166607 
10220000   0.10041161 
10230000  0.098218155 
10240000   0.09987159 
10250000   0.10263059 
10260000  0.099922532 
10270000   0.10177128 
10280000  0.099590446 
10290000  0.099449862 
10300000   0.08837283 
10310000  0.098796547 
10320000   0.10354817 
10330000   0.09544872 
10340000  0.096766729 
10350000  0.096782274 
10360000   0.10520684 
10370000  0.096480176 
10380000   0.10655794 
10390000   0.10228074 
10400000  0.097851652 
10410000   0.09807983 
10420000  0.095518174 
10430000   0.10103531 
10440000   0.11312073 
10450000   0.10234194 
10460000   0.10245844 
10470000  0.098865384 
10480000   0.10139094 
10490000   0.10473928 
10500000  0.097932975 
10510000   0.10198182 
10520000   0.10448285 
10530000   0.10027827 
10540000   0.09945825 
10550000   0.10094975 
10560000  0.096430732 
10570000  0.099813064 
10580000  0.095458138 
10590000   0.10446924 
10600000  0.092495848 
10610000   0.10381992 
10620000  0.099689472 
10630000   0.10757684 
10640000   0.11306658 
10650000  0.096657139 
10660000   0.10299412 
10670000   0.10405301 
10680000   0.10531503 
10690000  0.091904179 
10700000   0.10656668 
10710000   0.10216866 
10720000   0.10635905 
10730000   0.10212709 
10740000   0.10057595 
10750000   0.10574896 
10760000   0.10656809 
10770000   0.10463562 
10780000    0.1032015 
10790000   0.10634848 
10800000  0.098330397 
10810000   0.10843571 
10820000   0.09963023 
10830000  0.099593329 
10840000   0.10066071 
10850000   0.10008467 
10860000   0.10097874 
10870000   0.10700208 
10880000   0.10398917 
10890000  0.098163688 
10900000   0.10466813 
10910000   0.10573278 
10920000   0.10254915 
10930000   0.10640464 
10940000  0.095745385 
10950000   0.10294894 
10960000   0.10832197 
10970000  0.094285208 
10980000   0.10192173 
10990000    0.1026177 
11000000  0.097326539 
11010000  0.097228694 
11020000   0.10447535 
11030000   0.10093066 
11040000   0.10267262 
11050000  0.098891545 
11060000   0.10166308 
11070000   0.11186329 
11080000   0.10249538 
11090000   0.10709398 
11100000    0.0957861 
11110000   0.10542849 
11120000  0.099489984 
11130000   0.10126317 
11140000  0.099714685 
11150000  0.098601733 
11160000  0.094908797 
11170000  0.099814198 
11180000   0.10236425 
11190000  0.099370998 
11200000  0.099526886 
11210000  0.092879933 
11220000   0.11224561 
11230000  0.098504762 
11240000   0.10408762 
11250000  0.094175223 
11260000   0.11302988 
11270000  0.098926487 
11280000   0.10355327 
11290000  0.099472546 
11300000   0.10676991 
11310000  0.099579118 
11320000   0.10366171 
11330000  0.098026389 
11340000    0.1013659 
11350000   0.10178688 
11360000   0.10588817 
11370000   0.10180183 
11380000  0.096854162 
11390000  0.094235901 
11400000   0.10207279 
11410000   0.10082005 
11420000  0.098859943 
11430000  0.097411904 
11440000   0.10092373 
11450000   0.10249291 
11460000   0.10874047 
11470000  0.096603023 
11480000  0.092284205 
11490000   0.10331806 
11500000   0.10109248 
11510000   0.10402246 
11520000   0.10096759 
11530000  0.099413957 
11540000  0.096975906 
11550000   0.10472235 
11560000    0.1015194 
11570000  0.098903023 
11580000  0.095049553 
11590000  0.089818104 
11600000   0.10893266 
11610000  0.095289575 
11620000  0.092527033 
11630000    0.1051566 
11640000  0.095258558 
11650000  0.096734771 
11660000   0.10187719 
11670000  0.095149121 
11680000  0.091023736 
11690000    0.1081082 
11700000   0.10229848 
11710000   0.10467701 
11720000   0.10705722 
11730000   0.10299165 
11740000  0.094189193 
11750000  0.096592783 
11760000  0.096781144 
11770000  0.091621449 
11780000   0.10175905 
11790000   0.09957773 
11800000   0.09939037 
11810000  0.098061841 
11820000   0.10525746 
11830000  0.098828816 
11840000   0.10372164 
11850000  0.099539408 
11860000  0.093975227 
11870000   0.10318101 
11880000   0.10741317 
11890000  0.096928284 
11900000  0.089013488 
11910000  0.095611888 
11920000  0.099050648 
11930000  0.094056337 
11940000   0.10240329 
11950000  0.099239466 
11960000   0.09432184 
11970000   0.10089801 
11980000    0.1065221 
11990000  0.095099522 
12000000   0.10168683 
12010000   0.10897245 
12020000  0.096872594 
12030000   0.10253132 
12040000   0.09174086 
12050000  0.092811342 
12060000   0.10159825 
12070000   0.10177009 
12080000   0.10180249 
12090000  0.097022607 
12100000  0.094464993 
12110000   0.10553535 
12120000   0.10299598 
12130000    0.1086341 
12140000    0.1008713 
12150000   0.10098436 
12160000   0.10256565 
12170000   0.10937031 
12180000  0.093700105 
12190000   0.10594102 
12200000  0.098109282 
12210000  0.095254063 
12220000   0.09954049 
12230000   0.10150676 
12240000  0.097271367 
12250000   0.10446383 
12260000  0.090252035 
12270000   0.10129377 
12280000    0.1000565 
12290000   0.10227337 
12300000  0.093480715 
12310000   0.10580326 
12320000   0.10439318 
12330000  0.097682966 
12340000   0.10232781 
12350000  0.096436244 
12360000   0.10917319 
12370000   0.10472767 
12380000   0.09498556 
12390000  0.097701542 
12400000   0.10152295 
12410000   0.10069996 
12420000   0.10286055 
12430000  0.097089564 
12440000   0.11099854 
12450000   0.10137851 
12460000  0.097405243 
12470000  0.093047955 
12480000   0.10532872 
12490000   0.10069815 
12500000  0.089997302 
12510000  0.097346726 
12520000  0.099687123 
12530000  0.099172692 
12540000   0.10485375 
12550000   0.10146832 
12560000  0.093087953 
12570000    0.1018422 
12580000   0.10336236 
12590000  0.098003511 
12600000  0.093184428 
12610000  0.097821095 
12620000   0.10478569 
12630000  0.096167762 
12640000   0.10563727 
12650000  0.099079893 
12660000  0.092554274 
12670000    0.1036575 
12680000  0.094827811 
12690000  0.095352278 
12700000  0.093291047 
12710000   0.10384047 
12720000  0.099159246 
12730000  0.093788965 
12740000   0.10268818 
12750000  0.096745013 
12760000  0.098097952 
12770000  0.098576927 
12780000  0.098078534 
12790000   0.10752665 
12800000   0.10662193 
12810000   0.10012161 
12820000   0.10446207 
12830000   0.10540821 
12840000  0.093286302 
12850000   0.11320668 
12860000   0.10026703 
12870000   0.10079651 
12880000  0.096875764 
12890000   0.10477978 
12900000   0.10623685 
12910000  0.099581656 
12920000  0.091264024 
12930000  0.099814332 
12940000   0.10208805 
12950000   0.10261316 
12960000   0.09961643 
12970000  0.099888661 
12980000  0.093499192 
12990000   0.10602097 
13000000   0.10112509 
13010000    0.1047089 
13020000   0.10268894 
13030000   0.10076771 
13040000   0.10516488 
13050000  0.096512012 
13060000  0.098972001 
13070000  0.096103075 
13080000  0.092374876 
13090000  0.096889258 
13100000   0.10325599 
13110000   0.10104534 
13120000    0.1037428 
13130000   0.11016228 
13140000  0.095972595 
13150000   0.10245767 
13160000  0.099845617 
13170000   0.10116061 
13180000   0.10051974 
13190000  0.099197695 
13200000  0.093381454 
13210000  0.099602693 
13220000   0.10340862 
13230000  0.099899458 
13240000  0.095265318 
13250000  0.093830503 
13260000  0.096013131 
13270000   0.10132825 
13280000   0.10586981 
13290000   0.10204057 
13300000  0.099574463 
13310000   0.10158329 
13320000  0.097797543 
13330000  0.099522348 
13340000    0.1013927 
13350000  0.095320308 
13360000  0.096673756 
13370000   0.10300284 
13380000   0.10098506 
13390000   0.10348356 
13400000  0.097589582 
13410000   0.10154581 
13420000  0.096542759 
13430000   0.10360803 
13440000   0.10473398 
13450000   0.10267519 
13460000  0.098697053 
13470000  0.097718668 
13480000  0.098713844 
13490000  0.097467756 
13500000  0.096915894 
13510000  0.098695187 
13520000  0.092887301 
13530000   0.10146591 
13540000  0.094909914 
13550000   0.10391393 
13560000  0.096424575 
13570000  0.094655517 
13580000   0.10167261 
13590000   0.10798829 
13600000   0.10147967 
13610000  0.095537362 
13620000  0.096839879 
13630000   0.09908725 
13640000   0.10475811 
13650000  0.099750381 
13660000  0.096064682 
13670000  0.096638704 
13680000   0.10457743 
13690000  0.098934401 
13700000   0.09779659 
13710000  0.098481925 
13720000  0.099670192 
13730000  0.096854977 
13740000   0.10006175 
13750000   0.10445506 
13760000   0.10072174 
13770000  0.097078522 
13780000   0.10538512 
13790000   0.10666358 
13800000   0.10032727 
13810000  0.098494681 
13820000   0.10398377 
13830000  0.097168545 
13840000  0.095776716 
13850000  0.098664454 
13860000    0.1002379 
13870000   0.10092859 
13880000   0.10296641 
13890000   0.10056966 
13900000   0.10118523 
13910000  0.090409155 
13920000    0.1087758 
13930000  0.096827141 
13940000   0.10081517 
13950000  0.096151341 
13960000  0.096209678 
13970000   0.10461376 
13980000   0.10082736 
13990000   0.10471903 
14000000   0.10258922 
14010000  0.094673371 
14020000   0.10589041 
14030000  0.098851708 
14040000   0.10035029 
14050000   0.10287137 
14060000  0.098160788 
14070000   0.10610567 
14080000  0.097617034 
14090000  0.099537566 
14100000  0.089606536 
14110000  0.099813248 
14120000   0.10660032 
14130000  0.098038521 
14140000   0.10017194 
14150000     0.104906 
14160000    0.1026398 
14170000  0.097376061 
14180000   0.10195856 
14190000   0.10436738 
14200000   0.10673138 
14210000  0.095143044 
14220000  0.099257958 
14230000  0.094349986 
14240000  0.095843692 
14250000  0.095292369 
14260000   0.10681187 
14270000   0.09908138 
14280000   0.10385083 
14290000   0.10851574 
14300000   0.10357217 
14310000  0.095734386 
14320000  0.098456148 
14330000   0.10420312 
14340000   0.10410908 
14350000   0.10219101 
14360000  0.090864994 
14370000   0.10192905 
14380000   0.10236372 
14390000  0.098402955 
14400000    0.1084882 
14410000  0.098869025 
14420000  0.095976465 
14430000   0.10109033 
14440000   0.10016676 
14450000  0.095479557 
14460000   0.09796697 
14470000   0.10470716 
14480000   0.10188828 
14490000    0.1022915 
14500000  0.099064148 
14510000   0.09925032 
14520000    0.1029581 
14530000  0.098767817 
14540000  0.095264649 
14550000  0.096851773 
14560000   0.10087934 
14570000  0.096999573 
14580000   0.10828192 
14590000  0.099206808 
14600000   0.10039091 
14610000   0.10352501 
14620000   0.09774166 
14630000  0.095231914 
14640000    0.0983759 
14650000  0.093359026 
14660000   0.10250656 
14670000  0.098912947 
14680000   0.10416436 
14690000  0.095567773 
14700000  0.098432282 
14710000  0.099423357 
14720000  0.097119307 
14730000   0.10571001 
14740000  0.098020193 
14750000  0.094930627 
14760000   0.10051665 
14770000   0.10079704 
14780000   0.10040194 
14790000  0.092553463 
14800000  0.091078014 
14810000  0.097387077 
14820000   0.11238773 
14830000  0.089586513 
14840000  0.092560521 
14850000  0.093247804 
14860000  0.095076114 
14870000  0.096943481 
14880000   0.10052732 
14890000  0.099890507 
14900000  0.096007334 
14910000  0.095256645 
14920000  0.098138012 
14930000  0.094208044 
14940000     0.106693 
14950000  0.096923828 
14960000  0.096683869 
14970000    0.0959945 
14980000  0.093271782 
14990000   0.10118416 
15000000    0.1093982 
15010000   0.10801752 
15020000   0.10214718 
15030000   0.10452199 
15040000   0.10273184 
15050000   0.10422954 
15060000  0.093837722 
15070000  0.099809093 
15080000   0.10255758 
15090000    0.1013239 
15100000   0.10067673 
15110000   0.10595267 
15120000   0.10150958 
15130000    0.1059695 
15140000   0.10060593 
15150000   0.10003241 
15160000  0.099502073 
15170000   0.10256852 
15180000   0.10194432 
15190000   0.09271471 
15200000  0.097059583 
15210000    0.1032014 
15220000   0.10116771 
15230000   0.10327992 
15240000  0.093605185 
15250000  0.093251491 
15260000   0.10082672 
15270000  0.093348261 
15280000   0.09893916 
15290000   0.10592821 
15300000   0.10737139 
15310000   0.10234542 
15320000   0.10119241 
15330000  0.098778525 
15340000  0.097405118 
15350000   0.10119564 
15360000    0.1003374 
15370000  0.094036862 
15380000   0.10210809 
15390000   0.10878785 
15400000  0.099908848 
15410000  0.096607608 
15420000  0.095838888 
15430000  0.097677793 
15440000  0.099852791 
15450000   0.09603141 
15460000   0.10571662 
15470000   0.11100992 
15480000  0.097496916 
15490000   0.10689656 
15500000   0.10557676 
15510000   0.10299452 
15520000   0.10408921 
15530000  0.095738532 
15540000   0.10497072 
15550000  0.095510949 
15560000   0.10361588 
15570000  0.097173554 
15580000   0.10195595 
15590000   0.10406593 
15600000  0.095645096 
15610000   0.10101222 
15620000  0.098982441 
15630000  0.097505754 
15640000   0.10370014 
15650000   0.10120564 
15660000  0.098891338 
15670000  0.093121066 
15680000  0.097801624 
15690000  0.095268193 
15700000    0.1020885 
15710000  0.095544408 
15720000  0.094278773 
15730000  0.095849503 
15740000   0.10340675 
15750000  0.097809032 
15760000   0.10062213 
15770000  0.099940098 
15780000   0.10046695 
15790000  0.098716552 
15800000   0.10104333 
15810000  0.099830272 
15820000  0.099003067 
15830000   0.11120922 
15840000  0.096315807 
15850000  0.099471553 
15860000   0.10377097 
15870000   0.10175592 
15880000  0.094486254 
15890000   0.10614668 
15900000   0.10657381 
15910000  0.097755322 
15920000   0.10267972 
15930000   0.10468067 
15940000  0.094054134 
15950000    0.1029753 
15960000  0.097780777 
15970000   0.10426102 
15980000   0.09859016 
15990000   0.10283864 
16000000   0.10483026 
16010000   0.10367965 
16020000    0.1034877 
16030000   0.10768907 
16040000  0.092550716 
16050000   0.10196682 
16060000  0.096816584 
16070000   0.10284174 
16080000   0.09910058 
16090000   0.10655814 
16100000  0.094788175 
16110000   0.10948967 
16120000   0.10462302 
16130000  0.092674173 
16140000  0.090314701 
16150000  0.094806832 
16160000  0.097922257 
16170000   0.10079852 
16180000   0.11230899 
16190000   0.10383585 
16200000   0.10467453 
16210000  0.094871102 
16220000  0.099720635 
16230000  0.096794447 
16240000  0.099004112 
16250000   0.10306833 
16260000   0.10601972 
16270000   0.10167776 
16280000   0.10363046 
16290000   0.10255446 
16300000   0.10599141 
16310000   0.10061801 
16320000  0.099562677 
16330000  0.092244336 
16340000  0.098776188 
16350000   0.10276169 
16360000  0.093344722 
16370000   0.10291538 
16380000   0.10254566 
16390000   0.10147828 
16400000   0.10113191 
16410000  0.097783484 
16420000   0.10005277 
16430000     0.110165 
16440000   0.10598982 
16450000   0.10237176 
16460000   0.10135096 
16470000  0.099270771 
16480000   0.10416663 
16490000   0.11050622 
16500000   0.10583144 
16510000   0.10539179 
16520000  0.097519469 
16530000   0.10701388 
16540000  0.099710088 
16550000   0.10119337 
16560000   0.10596466 
16570000  0.097109926 
16580000   0.10506114 
16590000   0.10056472 
16600000   0.09904391 
16610000   0.10269951 
16620000   0.10498587 
16630000  0.099796827 
16640000  0.098209017 
16650000  0.099452537 
16660000  0.093754809 
16670000  0.099274483 
16680000   0.10167817 
16690000  0.093558791 
16700000   0.09990269 
16710000   0.10396281 
16720000   0.10082906 
16730000  0.097820064 
16740000    0.1049969 
16750000   0.10292685 
16760000  0.093891965 
16770000  0.090487989 
16780000  0.096342115 
16790000   0.10497319 
16800000   0.10788561 
16810000  0.094695237 
16820000   0.11316143 
16830000   0.10682337 
16840000    0.1035592 
16850000   0.10215217 
16860000  0.099721507 
16870000   0.10122306 
16880000    0.1001331 
16890000   0.10477417 
16900000  0.098018502 
16910000    0.1005912 
16920000   0.10085434 
16930000   0.10912626 
16940000   0.10027238 
16950000  0.094861124 
16960000   0.10023094 
16970000   0.10808317 
16980000  0.097878735 
16990000  0.097102189 
17000000   0.10255396 
17010000   0.10807674 
17020000   0.10812998 
17030000  0.098973941 
17040000   0.10485286 
17050000  0.094371571 
17060000   0.10962271 
17070000  0.091529456 
17080000   0.10276404 
17090000  0.093865027 
17100000   0.10731955 
17110000   0.10131755 
17120000  0.094351492 
17130000   0.10789107 
17140000   0.10549686 
17150000  0.096669126 
17160000   0.10148026 
17170000   0.09620265 
17180000  0.099783747 
17190000   0.10636456 
17200000   0.10341668 
17210000   0.09793185 
17220000   0.10218702 
17230000   0.10029407 
17240000   0.10096805 
17250000  0.098480533 
17260000   0.10209512 
17270000  0.098896482 
17280000   0.10218346 
17290000  0.091237292 
17300000  0.098555204 
17310000   0.10034992 
17320000   0.10061199 
17330000    0.1080294 
17340000  0.093441494 
17350000  0.099040793 
17360000  0.094699286 
17370000   0.10742922 
17380000  0.096935542 
17390000    0.1050519 
17400000   0.10011973 
17410000   0.10246823 
17420000  0.093890935 
17430000   0.10466639 
17440000   0.08918878 
17450000   0.10184131 
17460000  0.093738912 
17470000   0.10065394 
17480000  0.093052555 
17490000   0.10763902 
17500000  0.097074439 
17510000   0.10503828 
17520000  0.097494326 
17530000  0.094915874 
17540000  0.097006459 
17550000  0.090859125 
17560000    0.1039461 
17570000   0.10134184 
17580000   0.10387911 
17590000   0.10526289 
17600000   0.10763309 
17610000   0.10389193 
17620000   0.10290683 
17630000  0.099612626 
17640000   0.10263017 
17650000   0.10021295 
17660000   0.10077626 
17670000  0.098807765 
17680000   0.10405983 
17690000   0.10037631 
17700000  0.096039369 
17710000   0.11005813 
17720000  0.092450937 
17730000  0.094159953 
17740000   0.10075424 
17750000   0.10092234 
17760000    0.1047542 
17770000   0.10116749 
17780000  0.096441168 
17790000   0.10199299 
17800000   0.10248267 
17810000   0.10304544 
17820000   0.10437056 
17830000  0.095957916 
17840000   0.10249281 
17850000   0.10660572 
17860000  0.090021356 
17870000  0.097402242 
17880000  0.098866183 
17890000   0.10680876 
17900000  0.092058171 
17910000  0.096214062 
17920000  0.099888291 
17930000    0.1035454 
17940000  0.094866517 
17950000    0.1003083 
17960000   0.10057168 
17970000   0.09306181 
17980000  0.099273169 
17990000    0.1013545 
18000000   0.10096658 
18010000  0.099637776 
18020000   0.10397659 
18030000   0.10001027 
18040000   0.10931738 
18050000  0.090089101 
18060000   0.10280148 
18070000  0.098527511 
18080000   0.10274242 
18090000   0.10786347 
18100000   0.10482976 
18110000  0.095996247 
18120000  0.099717043 
18130000  0.098369689 
18140000   0.10278393 
18150000   0.10141847 
18160000  0.098857179 
18170000  0.094661046 
18180000  0.099070506 
18190000    0.1063114 
18200000  0.096962438 
18210000  0.094408343 
18220000   0.10008666 
18230000   0.10860413 
18240000   0.11012472 
18250000  0.098034739 
18260000  0.098262505 
18270000   0.10223336 
18280000   0.11013084 
18290000  0.095872857 
18300000   0.10141191 
18310000    0.1059453 
18320000  0.096860715 
18330000   0.10030293 
18340000   0.10659065 
18350000   0.10153695 
18360000   0.10091754 
18370000   0.09792057 
18380000  0.095823263 
18390000     0.105794 
18400000  0.096594288 
18410000   0.10221565 
18420000   0.10062816 
18430000  0.091402825 
18440000   0.10633736 
18450000   0.10205859 
18460000  0.099111068 
18470000   0.10615716 
18480000   0.09251232 
18490000    0.1036289 
18500000  0.098549215 
18510000  0.088139064 
18520000  0.095384577 
18530000   0.10548933 
18540000  0.093945409 
18550000  0.098563222 
18560000  0.094578746 
18570000  0.097445105 
18580000   0.10213962 
18590000   0.10318714 
18600000  0.096480344 
18610000   0.10622413 
18620000    0.0938196 
18630000   0.10657751 
18640000   0.10044152 
18650000   0.10046635 
18660000   0.10322056 
18670000   0.10108487 
18680000  0.098079011 
18690000  0.097781352 
18700000  0.097456519 
18710000    0.1013575 
18720000    0.1162674 
18730000   0.10206767 
18740000  0.093911543 
18750000   0.11377765 
18760000  0.095864862 
18770000   0.09629607 
18780000   0.10346573 
18790000  0.098411553 
18800000   0.10275027 
18810000  0.090137215 
18820000  0.099862408 
18830000   0.09888177 
18840000  0.097668057 
18850000   0.10439133 
18860000  0.096600968 
18870000   0.10009512 
18880000  0.097413911 
18890000    0.1020018 
18900000   0.10134921 
18910000  0.099085767 
18920000  0.097071568 
18930000  0.097064993 
18940000  0.097567438 
18950000   0.10118803 
18960000   0.10449931 
18970000   0.10203066 
18980000   0.10539761 
18990000  0.099719654 
19000000   0.10392626 
19010000   0.10076658 
19020000  0.093735561 
19030000  0.097067328 
19040000  0.099690934 
19050000   0.12000252 
19060000   0.10244655 
19070000  0.097722215 
19080000    0.1059209 
19090000   0.10404221 
19100000  0.094052304 
19110000   0.10986993 
19120000   0.10081935 
19130000  0.093075034 
19140000    0.1000577 
19150000  0.093871507 
19160000  0.093600895 
19170000  0.093964045 
19180000   0.09990917 
19190000  0.097654891 
19200000  0.089482435 
19210000  0.093421833 
19220000  0.099085745 
19230000   0.09040644 
19240000  0.099693981 
19250000  0.099778474 
19260000   0.09959801 
19270000   0.09886643 
19280000  0.098139119 
19290000   0.11027625 
19300000  0.092187524 
19310000  0.094784453 
19320000   0.09990595 
19330000   0.10009425 
19340000   0.10088494 
19350000  0.093207952 
19360000  0.093466992 
19370000  0.099676353 
19380000   0.10041307 
19390000  0.099111155 
19400000   0.10323942 
19410000  0.096229303 
19420000  0.098182788 
19430000  0.097429429 
19440000   0.10256689 
19450000   0.10742681 
19460000   0.10946454 
19470000   0.10009659 
19480000  0.099251889 
19490000  0.097084615 
19500000   0.10037595 
19510000  0.098362695 
19520000   0.09649302 
19530000   0.10308773 
19540000  0.099433519 
19550000  0.098303689 
19560000  0.097662547 
19570000  0.096478214 
19580000   0.10513719 
19590000   0.10057737 
19600000  0.099565428 
19610000   0.10105194 
19620000   0.11165358 
19630000   0.09894934 
19640000   0.10349961 
19650000  0.098352799 
19660000   0.10094856 
19670000   0.10085241 
19680000   0.10193978 
19690000   0.10318388 
19700000  0.099602032 
19710000  0.099802632 
19720000   0.10450309 
19730000  0.093804199 
19740000  0.098792485 
19750000    0.1094597 
19760000  0.098572337 
19770000   0.10694194 
19780000   0.10984266 
19790000   0.10535013 
19800000  0.097995946 
19810000   0.10601559 
19820000  0.090810564 
19830000  0.094979212 
19840000  0.096924113 
19850000   0.10216268 
19860000  0.094091066 
19870000   0.10174807 
19880000    0.1104433 
19890000   0.11301235 
19900000   0.10492746 
19910000  0.097814378 
19920000   0.10390089 
19930000   0.10202809 
19940000  0.099109927 
19950000    0.1060528 
19960000   0.09850094 
19970000   0.10675817 
19980000   0.10678677 
19990000   0.10011611 
20000000   0.10252822 
20010000  0.091874714 
20020000   0.10081958 
20030000  0.096600413 
20040000  0.097349981 
20050000   0.10832887 
20060000   0.10046849 
20070000  0.092182503 
20080000   0.10191527 
20090000  0.093606188 
20100000   0.10159585 
20110000  0.093029367 
20120000  0.092005739 
20130000   0.10107847 
20140000   0.11128222 
20150000  0.098724979 
20160000   0.10707501 
20170000  0.093124083 
20180000   0.10105453 
20190000   0.10209788 
20200000   0.10468381 
20210000   0.10539155 
20220000   0.10297168 
20230000   0.10569239 
20240000   0.10164753 
20250000   0.10134063 
20260000  0.095582847 
20270000  0.088037653 
20280000  0.098856978 
20290000   0.09931192 
20300000   0.10829346 
20310000   0.10861377 
20320000   0.09920066 
20330000  0.099235317 
20340000  0.097745062 
20350000   0.10517807 
20360000  0.096624829 
20370000   0.09502814 
20380000   0.10113858 
20390000  0.092305933 
20400000   0.10022297 
20410000   0.10042526 
20420000  0.095843491 
20430000  0.094821707 
20440000   0.10195469 
20450000  0.096192862 
20460000   0.11167818 
20470000   0.10530744 
20480000   0.10233874 
20490000   0.10595938 
20500000   0.10223017 
20510000  0.099754743 
20520000  0.099479295 
20530000  0.096717435 
20540000   0.10007623 
20550000   0.10764533 
20560000  0.094580288 
20570000   0.10413385 
20580000   0.10006539 
20590000  0.090085453 
20600000   0.10204663 
20610000   0.10047273 
20620000    0.1011109 
20630000   0.10416981 
20640000   0.10339799 
20650000   0.10922007 
20660000   0.10841052 
20670000  0.098114822 
20680000  0.099073966 
20690000  0.098548145 
20700000   0.10005091 
20710000  0.095424057 
20720000  0.098648899 
20730000  0.096935433 
20740000  0.096315592 
20750000   0.10345961 
20760000    0.1043694 
20770000  0.098760401 
20780000   0.10104469 
20790000   0.10290716 
20800000    0.1130588 
20810000  0.093444365 
20820000  0.099597733 
20830000  0.095571791 
20840000   0.10009223 
20850000     0.095665 
20860000   0.10157177 
20870000  0.091424825 
20880000   0.10123827 
20890000   0.10126237 
20900000  0.092518643 
20910000   0.10150241 
20920000  0.097322795 
20930000  0.097545172 
20940000   0.10392567 
20950000  0.092965804 
20960000   0.10541825 
20970000  0.093213526 
20980000   0.10126989 
20990000   0.09948259 
21000000  0.096697446 
21010000   0.09111537 
21020000  0.097226817 
21030000   0.10459295 
21040000  0.099698106 
21050000   0.10282577 
21060000   0.10541557 
21070000  0.098796087 
21080000   0.10887465 
21090000   0.10253707 
21100000   0.10486934 
21110000   0.10628107 
21120000   0.10059079 
21130000  0.093178275 
21140000  0.096974991 
21150000   0.10807345 
21160000   0.11250618 
21170000  0.095809037 
21180000   0.10020468 
21190000   0.10029096 
21200000   0.10607632 
21210000    0.1011374 
21220000   0.10105228 
21230000   0.09913973 
21240000   0.10469604 
21250000    0.1102053 
21260000   0.10078587 
21270000  0.097473564 
21280000   0.10669159 
21290000    0.1034749 
21300000  0.096993341 
21310000  0.098035815 
21320000  0.099099526 
21330000   0.10278076 
21340000   0.10769404 
21350000  0.096294328 
21360000   0.10025728 
21370000   0.10097416 
21380000   0.10962083 
21390000   0.10267066 
21400000   0.10163617 
21410000   0.10450903 
21420000  0.097236191 
21430000  0.097404414 
21440000  0.096519587 
21450000  0.088204683 
21460000  0.094883698 
21470000  0.096924262 
21480000  0.096575797 
21490000  0.099097188 
21500000  0.098313477 
21510000  0.096488217 
21520000  0.097805394 
21530000   0.10030732 
21540000   0.10029008 
21550000   0.10381955 
21560000  0.093322454 
21570000  0.094097965 
21580000   0.10378264 
21590000   0.10353532 
21600000   0.10597772 
21610000   0.10626349 
21620000  0.099593235 
21630000   0.10570836 
21640000  0.097933673 
21650000   0.10239834 
21660000  0.098839459 
21670000   0.10467921 
21680000   0.10440186 
21690000   0.10001891 
21700000   0.10308615 
21710000  0.093653089 
21720000  0.096596368 
21730000  0.099493161 
21740000  0.095457503 
21750000  0.092889404 
21760000   0.10733838 
21770000   0.10068204 
21780000  0.095073472 
21790000  0.097902572 
21800000   0.10382602 
21810000   0.10201456 
21820000  0.098673612 
21830000   0.10195475 
21840000    0.1016034 
21850000   0.09405037 
21860000  0.099562107 
21870000   0.10105463 
21880000   0.10043781 
21890000  0.094044475 
21900000  0.099597962 
21910000   0.10262846 
21920000  0.092944474 
21930000   0.11054918 
21940000  0.096231362 
21950000   0.10448456 
21960000  0.096576524 
21970000  0.099687853 
21980000   0.10098117 
21990000   0.10983609 
22000000  0.099649281 
22010000  0.093585277 
22020000  0.098926959 
22030000  0.092256847 
22040000   0.10273093 
22050000   0.10221916 
22060000    0.1059409 
22070000  0.095091947 
22080000  0.098567391 
22090000   0.10162788 
22100000   0.10133448 
22110000   0.10643499 
22120000   0.10767342 
22130000  0.090714845 
22140000  0.098022966 
22150000  0.099253313 
22160000  0.096394571 
22170000   0.10839694 
22180000   0.10709257 
22190000  0.098903529 
22200000  0.094670731 
22210000   0.10336564 
22220000  0.095304973 
22230000   0.10650447 
22240000  0.096621182 
22250000   0.10091268 
22260000   0.10811357 
22270000   0.10244646 
22280000  0.096277428 
22290000  0.095847713 
22300000   0.10217357 
22310000  0.099000427 
22320000    0.0951503 
22330000    0.1060165 
22340000   0.10345271 
22350000   0.10089699 
22360000   0.10142824 
22370000  0.095680196 
22380000   0.10323601 
22390000   0.10939717 
22400000  0.094463279 
22410000   0.10272393 
22420000  0.096281727 
22430000   0.10621761 
22440000  0.096514501 
22450000   0.10351633 
22460000  0.096065202 
22470000   0.10322851 
22480000   0.09496902 
22490000   0.10341059 
22500000   0.10760635 
22510000  0.099100397 
22520000   0.10199821 
22530000   0.09614761 
22540000  0.095790203 
22550000   0.10597815 
22560000   0.10364816 
22570000   0.10428293 
22580000  0.097306286 
22590000  0.098399616 
22600000   0.10539369 
22610000  0.097281162 
22620000   0.10300501 
22630000  0.096438524 
22640000    0.1115527 
22650000  0.096595524 
22660000  0.099831126 
22670000  0.099247072 
22680000  0.095524467 
22690000   0.10006112 
22700000   0.10243576 
22710000   0.10706304 
22720000  0.098828002 
22730000   0.10163856 
22740000   0.10694271 
22750000  0.093751209 
22760000   0.10165886 
22770000   0.10679067 
22780000   0.09748678 
22790000    0.1102407 
22800000    0.1137193 
22810000  0.097617418 
22820000   0.10299343 
22830000   0.10302797 
22840000   0.10056452 
22850000    0.1028764 
22860000   0.10153782 
22870000  0.097369575 
22880000  0.097842084 
22890000   0.10318337 
22900000   0.09823875 
22910000   0.10807794 
22920000  0.095527381 
22930000  0.090562247 
22940000   0.10087885 
22950000  0.099473485 
22960000   0.10151014 
22970000   0.10177467 
22980000  0.098175464 
22990000  0.098009371 
23000000   0.10134701 
23010000  0.094425913 
23020000   0.09234925 
23030000    0.1010225 
23040000  0.099764883 
23050000   0.10048655 
23060000  0.097967044 
23070000  0.094818546 
23080000   0.10235586 
23090000  0.096039705 
23100000  0.099111251 
23110000    0.1023084 
23120000  0.097148105 
23130000   0.10344002 
23140000   0.10630883 
23150000   0.10439777 
23160000  0.093258892 
23170000  0.099677175 
23180000   0.10263179 
23190000   0.10560014 
23200000   0.10036287 
23210000   0.10274765 
23220000  0.094978981 
23230000   0.09414349 
23240000   0.10363622 
23250000   0.10683203 
23260000   0.10423269 
23270000  0.097156449 
23280000  0.098925544 
23290000  0.098624871 
23300000   0.10092795 
23310000   0.10338535 
23320000   0.10408053 
23330000  0.098804478 
23340000   0.10398131 
23350000   0.10183112 
23360000  0.099422613 
23370000   0.11088903 
23380000  0.098929006 
23390000   0.10032346 
23400000  0.099200688 
23410000   0.10730788 
23420000  0.094162249 
23430000  0.098363103 
23440000   0.10375974 
23450000   0.10016546 
23460000   0.10086409 
23470000  0.099665913 
23480000   0.10076595 
23490000  0.097976071 
23500000   0.10358079 
23510000  0.097956699 
23520000   0.10235543 
23530000  0.096557689 
23540000  0.096619752 
23550000  0.089055782 
23560000  0.098518765 
23570000   0.10002471 
23580000   0.10384598 
23590000  0.091743235 
23600000  0.095597374 
23610000   0.10889223 
23620000    0.1060896 
23630000  0.099013903 
23640000   0.10818227 
23650000   0.10183251 
23660000  0.094712548 
23670000    0.1013239 
23680000   0.10144945 
23690000   0.10342186 
23700000  0.095627861 
23710000  0.093197549 
23720000    0.1010211 
23730000  0.094839551 
23740000   0.10236446 
23750000   0.10364905 
23760000  0.095372594 
23770000  0.086722543 
23780000  0.095216293 
23790000   0.10064269 
23800000   0.10092559 
23810000  0.097677796 
23820000   0.10433525 
23830000  0.097544203 
23840000  0.092027989 
23850000  0.094353021 
23860000   0.10019803 
23870000  0.089241283 
23880000  0.095210912 
23890000   0.10001625 
23900000  0.096112417 
23910000  0.098780416 
23920000   0.09806338 
23930000  0.094516839 
23940000   0.10214523 
23950000   0.10581261 
23960000   0.10041355 
23970000   0.10535317 
23980000  0.093160615 
23990000   0.10783218 
24000000   0.10302261 
24010000  0.099791272 
24020000  0.089156001 
24030000   0.09677036 
24040000   0.10704064 
24050000  0.097921889 
24060000   0.10229511 
24070000   0.10123719 
24080000  0.098157808 
24090000   0.10278426 
24100000  0.091697893 
24110000  0.097282547 
24120000  0.099497833 
24130000  0.093313674 
24140000   0.10158753 
24150000  0.097603527 
24160000   0.10232616 
24170000    0.1002504 
24180000   0.10135774 
24190000   0.10061187 
24200000   0.10119213 
24210000  0.094847931 
24220000    0.1030937 
24230000    0.1110577 
24240000  0.094931504 
24250000  0.097255214 
24260000    0.1012908 
24270000  0.096650803 
24280000    0.1022122 
24290000   0.10724576 
24300000  0.092469937 
24310000  0.097559536 
24320000   0.10261679 
24330000  0.094398184 
24340000  0.097503264 
24350000  0.094706699 
24360000   0.10008589 
24370000  0.099093199 
24380000   0.10553108 
24390000  0.095616847 
24400000   0.10417126 
24410000   0.09996971 
24420000   0.10050655 
24430000  0.098139593 
24440000   0.09786721 
24450000  0.098197381 
24460000   0.10882814 
24470000  0.091727123 
24480000  0.092355809 
24490000  0.095437249 
24500000   0.10450606 
24510000   0.10774347 
24520000   0.10265857 
24530000   0.11150896 
24540000   0.10590124 
24550000    0.0968212 
24560000   0.10400653 
24570000  0.095231659 
24580000  0.094559338 
24590000   0.10462097 
24600000  0.091043562 
24610000  0.094327385 
24620000   0.11482091 
24630000   0.10604427 
24640000   0.10082022 
24650000   0.10950172 
24660000   0.10061433 
24670000  0.095538437 
24680000  0.097292938 
24690000   0.10667966 
24700000   0.11319742 
24710000   0.10386092 
24720000  0.091884682 
24730000   0.10071817 
24740000   0.10258079 
24750000   0.10064862 
24760000   0.10081383 
24770000   0.10818892 
24780000  0.097618999 
24790000   0.10173944 
24800000   0.10126194 
24810000   0.10468915 
24820000   0.10075711 
24830000   0.10908143 
24840000   0.10202134 
24850000   0.10158628 
24860000  0.096689987 
24870000   0.10286979 
24880000  0.095672307 
24890000   0.10135859 
24900000   0.10463285 
24910000   0.10002762 
24920000   0.10328921 
24930000  0.096970004 
24940000  0.099516052 
24950000  0.094566785 
24960000  0.097818019 
24970000   0.10309122 
24980000  0.090630581 
24990000   0.10762358 
25000000  0.093886142 
25010000   0.10589154 
25020000   0.10482354 
25030000  0.096218481 
25040000   0.10027591 
25050000  0.091332956 
25060000  0.098886491 
25070000  0.099318629 
25080000  0.092635563 
25090000   0.10246002 
25100000   0.10452157 
25110000  0.095926388 
25120000   0.10371017 
25130000  0.099884064 
25140000   0.10716208 
25150000  0.097325652 
25160000  0.094818033 
25170000  0.098365177 
25180000  0.095896791 
25190000  0.098813227 
25200000  0.092631665 
25210000    0.1045032 
25220000  0.097616571 
25230000   0.10311669 
25240000   0.10554416 
25250000   0.10202046 
25260000  0.099313518 
25270000  0.099294954 
25280000  0.097999831 
25290000   0.10131116 
25300000  0.093614662 
25310000   0.10641566 
25320000   0.10057464 
25330000   0.10543195 
25340000  0.094465884 
25350000  0.094553292 
25360000  0.096698452 
25370000   0.10895675 
25380000   0.10145649 
25390000  0.097190441 
25400000  0.098632973 
25410000  0.085134527 
25420000   0.10077062 
25430000   0.10472685 
25440000   0.09533494 
25450000   0.10093405 
25460000   0.10172908 
25470000  0.096289791 
25480000   0.10242574 
25490000   0.10016379 
25500000  0.097671486 
25510000   0.10098781 
25520000  0.088788581 
25530000   0.11113197 
25540000   0.10356765 
25550000   0.10002055 
25560000   0.09619393 
25570000   0.10493202 
25580000  0.094342657 
25590000  0.097066914 
25600000   0.10433719 
25610000   0.10546426 
25620000   0.10639136 
25630000   0.09941634 
25640000   0.10077205 
25650000   0.10173621 
25660000  0.088903195 
25670000  0.097435387 
25680000    0.0969834 
25690000  0.095568865 
25700000   0.10650351 
25710000  0.094901194 
25720000  0.093788709 
25730000   0.10037052 
25740000   0.09669999 
25750000  0.099219459 
25760000   0.10680741 
25770000   0.10099102 
25780000   0.10187988 
25790000   0.10622677 
25800000  0.099873912 
25810000  0.097644527 
25820000  0.096936806 
25830000   0.10355212 
25840000  0.099168652 
25850000   0.10244554 
25860000    0.1009161 
25870000   0.10141722 
25880000  0.099328029 
25890000  0.094568882 
25900000   0.10617052 
25910000   0.10649281 
25920000   0.10847248 
25930000   0.10302678 
25940000    0.1021443 
25950000  0.092034403 
25960000  0.097615079 
25970000  0.093464838 
25980000   0.10375196 
25990000   0.09844171 
26000000  0.097922043 
26010000  0.094283827 
26020000  0.095308311 
26030000    0.1016413 
26040000  0.095435373 
26050000  0.096034113 
26060000   0.10942466 
26070000   0.10038177 
26080000   0.10654216 
26090000  0.094684691 
26100000   0.10346009 
26110000  0.099978951 
26120000    0.1046059 
26130000  0.093380164 
26140000    0.1049945 
26150000   0.09889079 
26160000  0.098367177 
26170000  0.098903848 
26180000  0.096037403 
26190000   0.10269604 
26200000  0.095001258 
26210000  0.099364234 
26220000   0.10197685 
26230000  0.098366845 
26240000   0.10415249 
26250000  0.096255217 
26260000   0.11157461 
26270000  0.093696311 
26280000    0.1067037 
26290000  0.096247008 
26300000    0.1006329 
26310000   0.10070772 
26320000   0.09275154 
26330000   0.10922392 
26340000    0.1047308 
26350000   0.10346035 
26360000   0.10338912 
26370000  0.098141013 
26380000  0.098753544 
26390000   0.10364627 
26400000   0.10006467 
26410000   0.10489685 
26420000   0.10245301 
26430000  0.099046168 
26440000   0.10176049 
26450000   0.10717357 
26460000   0.10107247 
26470000  0.095975544 
26480000   0.09927248 
26490000   0.10057219 
26500000   0.09841614 
26510000   0.10074324 
26520000   0.10309683 
26530000  0.099691995 
26540000   0.10046855 
26550000  0.098691514 
26560000   0.11203799 
26570000   0.10132519 
26580000   0.10290937 
26590000   0.10151959 
26600000  0.097385036 
26610000  0.097976461 
26620000   0.10702927 
26630000  0.096830077 
26640000  0.095120172 
26650000   0.10969897 
26660000  0.099289754 
26670000  0.097285101 
26680000   0.10229922 
26690000  0.098942934 
26700000   0.10242383 
26710000   0.10730061 
26720000   0.10413351 
26730000   0.10023837 
26740000  0.099592917 
26750000   0.10601723 
26760000  0.099380866 
26770000   0.10290525 
26780000  0.098308655 
26790000   0.10786953 
26800000  0.094673764 
26810000  0.097231231 
26820000   0.10088898 
26830000    0.1064536 
26840000  0.094272046 
26850000  0.098318247 
26860000   0.10551391 
26870000   0.10765111 
26880000  0.096038285 
26890000  0.096487537 
26900000  0.094055044 
26910000  0.098291077 
26920000  0.098713515 
26930000   0.10083979 
26940000  0.095094451 
26950000  0.098066686 
26960000  0.097891151 
26970000    0.1021151 
26980000    0.0957826 
26990000  0.097781283 
27000000    0.1033163 
27010000  0.095541315 
27020000  0.092793004 
27030000  0.092715127 
27040000   0.10311916 
27050000   0.10707987 
27060000  0.096142835 
27070000  0.099652559 
27080000  0.097168738 
27090000  0.097166158 
27100000   0.10294602 
27110000    0.1025351 
27120000   0.10595946 
27130000  0.093176932 
27140000   0.10483684 
27150000   0.10727977 
27160000    0.0999078 
27170000   0.10216454 
27180000   0.10787444 
27190000   0.10740091 
27200000   0.10637533 
27210000   0.10469586 
27220000   0.10476189 
27230000  0.099647356 
27240000   0.09730568 
27250000   0.09061912 
27260000   0.10060866 
27270000   0.10253645 
27280000   0.10360862 
27290000  0.094445807 
27300000   0.10117388 
27310000  0.098681608 
27320000  0.098479489 
27330000  0.097297078 
27340000  0.097671867 
27350000  0.097761539 
27360000    0.1006379 
27370000  0.095005646 
27380000  0.098867359 
27390000   0.09871362 
27400000   0.10662934 
27410000   0.10700249 
27420000   0.10261122 
27430000  0.098433139 
27440000  0.096714252 
27450000   0.10401287 
27460000   0.09184104 
27470000  0.091953146 
27480000  0.095018547 
27490000  0.097021083 
27500000   0.10356669 
27510000   0.10518164 
27520000  0.096833897 
27530000   0.10211204 
27540000   0.10348153 
27550000  0.099964371 
27560000  0.097986709 
27570000   0.10829526 
27580000  0.094912759 
27590000   0.10104505 
27600000   0.10378556 
27610000   0.10042601 
27620000   0.09971249 
27630000  0.095081054 
27640000  0.093748359 
27650000    0.1057688 
27660000  0.099579582 
27670000  0.099902459 
27680000   0.10589686 
27690000  0.087120796 
27700000  0.099848484 
27710000  0.095969335 
27720000   0.10129152 
27730000   0.10089329 
27740000    0.1039629 
27750000  0.098778891 
27760000   0.10058452 
27770000   0.10396546 
27780000  0.099103792 
27790000   0.10661155 
27800000   0.10070958 
27810000   0.10286347 
27820000  0.099136016 
27830000  0.099254397 
27840000  0.099978205 
27850000  0.098781327 
27860000   0.09747669 
27870000   0.10071401 
27880000   0.10170581 
27890000  0.097534983 
27900000   0.10055327 
27910000  0.098120765 
27920000  0.096582897 
27930000   0.10256828 
27940000  0.096621622 
27950000   0.09420513 
27960000  0.097879083 
27970000  0.089087288 
27980000   0.10064858 
27990000   0.10581667 
28000000   0.09736606 
28010000   0.09899722 
28020000  0.097382705 
28030000   0.10721677 
28040000  0.099028046 
28050000  0.095607766 
28060000    0.1016845 
28070000   0.09849301 
28080000  0.094345729 
28090000  0.089354524 
28100000   0.10787622 
28110000  0.096482513 
28120000    0.1054074 
28130000   0.10183623 
28140000  0.093924976 
28150000   0.10039865 
28160000  0.099424966 
28170000  0.096820093 
28180000  0.090474985 
28190000  0.097380673 
28200000   0.10543979 
28210000   0.10280807 
28220000   0.10053429 
28230000  0.095348914 
28240000   0.10060044 
28250000  0.088117433 
28260000   0.10634378 
28270000   0.10211515 
28280000  0.092991918 
28290000  0.097418044 
28300000   0.10722832 
28310000  0.090468349 
28320000   0.10979123 
28330000  0.096322283 
28340000   0.10029316 
28350000   0.10025362 
28360000  0.096397228 
28370000  0.096229313 
28380000  0.096099216 
28390000  0.097700514 
28400000   0.10017215 
28410000   0.10172018 
28420000  0.096434254 
28430000   0.09669012 
28440000   0.10451795 
28450000    0.1048936 
28460000  0.092827971 
28470000  0.097841487 
28480000   0.10100142 
28490000   0.10492359 
28500000   0.10161448 
28510000  0.099529179 
28520000  0.091854956 
28530000   0.10884592 
28540000  0.095209088 
28550000   0.09299839 
28560000  0.095722382 
28570000    0.1030372 
28580000   0.10365717 
28590000  0.094252521 
28600000  0.095448213 
28610000  0.092309575 
28620000  0.099265599 
28630000  0.090295668 
28640000    0.1042849 
28650000   0.10158197 
28660000    0.1070784 
28670000  0.098987195 
28680000  0.095653345 
28690000  0.095261276 
28700000  0.099063191 
28710000   0.10049876 
28720000   0.10796612 
28730000   0.10568058 
28740000   0.10114695 
28750000  0.099663247 
28760000    0.1004281 
28770000     0.105818 
28780000  0.097266837 
28790000  0.098574843 
28800000   0.10896593 
28810000   0.10373694 
28820000    0.1012125 
28830000   0.10129258 
28840000   0.10561877 
28850000  0.098769021 
28860000  0.094738661 
28870000  0.099586691 
28880000  0.097232132 
28890000   0.10718572 
28900000  0.093527847 
28910000   0.09101542 
28920000  0.096805584 
28930000  0.091508687 
28940000   0.10753162 
28950000   0.10046296 
28960000  0.097396754 
28970000   0.10419929 
28980000   0.10205342 
28990000  0.093295949 
29000000  0.094403272 
29010000   0.10207138 
29020000   0.09102296 
29030000  0.099213079 
29040000  0.091630354 
29050000   0.10903702 
29060000   0.09594851 
29070000   0.10820711 
29080000  0.094553935 
29090000   0.10529885 
29100000   0.10324474 
29110000  0.099644156 
29120000   0.10341922 
29130000    0.1000444 
29140000   0.10147421 
29150000  0.098901189 
29160000   0.10048236 
29170000   0.10153589 
29180000    0.1049977 
29190000   0.10034572 
29200000   0.09471443 
29210000  0.091791507 
29220000  0.095310915 
29230000    0.1013559 
29240000   0.10359869 
29250000   0.10946823 
29260000  0.093950995 
29270000   0.10401621 
29280000   0.10374416 
29290000   0.10846955 
29300000   0.10336819 
29310000   0.09794777 
29320000   0.09911778 
29330000    0.1081503 
29340000   0.10116744 
29350000   0.10185158 
29360000   0.10724077 
29370000    0.1052396 
29380000   0.10550429 
29390000   0.09175029 
29400000  0.099700814 
29410000   0.10392292 
29420000   0.10167054 
29430000   0.10092789 
29440000   0.10622257 
29450000   0.10430635 
29460000  0.095357525 
29470000  0.095669508 
29480000   0.10310434 
29490000  0.092966934 
29500000  0.097786386 
29510000  0.096199094 
29520000  0.097103753 
29530000    0.0969792 
29540000   0.09723051 
29550000   0.10868718 
29560000  0.097481158 
29570000  0.094961431 
29580000  0.093935941 
29590000  0.099562941 
29600000  0.093745029 
29610000   0.10686283 
29620000   0.10036675 
29630000  0.097881614 
29640000   0.09790022 
29650000   0.09578352 
29660000   0.10547754 
29670000     0.100579 
29680000  0.098478712 
29690000   0.10399463 
29700000   0.09874068 
29710000   0.10416889 
29720000   0.10781314 
29730000  0.098762323 
29740000  0.098932457 
29750000   0.10080214 
29760000   0.10030134 
29770000  0.099184745 
29780000  0.094573377 
29790000   0.10093689 
29800000  0.098320442 
29810000  0.095547314 
29820000  0.099535918 
29830000   0.09470628 
29840000  0.095332859 
29850000   0.10189152 
29860000   0.10605319 
29870000   0.10473016 
29880000   0.10081107 
29890000   0.10568198 
29900000   0.10115065 
29910000  0.099695504 
29920000  0.099775333 
29930000    0.1072056 
29940000  0.098680245 
29950000  0.092736588 
29960000   0.10521755 
[...]
247330000  0.095836749 
247340000   0.10031296 
247350000  0.096377942 
247360000   0.10285143 
247370000  0.096855821 
247380000   0.10658846 
247390000    0.1068149 
247400000   0.10098813 
247410000   0.10720195 
247420000   0.10758874 
247430000   0.10356136 
247440000  0.093841578 
247450000  0.099808116 
247460000   0.10264909 
247470000  0.099825435 
247480000   0.10124639 
247490000  0.086482546 
247500000    0.1032245 
247510000   0.09869224 
247520000   0.10560477 
247530000  0.094629343 
247540000   0.10450018 
247550000  0.096119895 
247560000  0.093525345 
247570000  0.094848485 
247580000   0.10757784 
247590000   0.10457259 
247600000   0.10077497 
247610000  0.098239943 
247620000  0.091736065 
247630000  0.098845243 
247640000  0.092871255 
247650000  0.095285513 
247660000  0.091663095 
247670000  0.094440432 
247680000   0.10215551 
247690000    0.1084629 
247700000   0.10665627 
247710000  0.089912862 
247720000   0.10095468 
247730000  0.098440899 
247740000  0.099500707 
247750000  0.094270676 
247760000   0.10738243 
247770000   0.09329216 
247780000   0.10318713 
247790000  0.097616876 
247800000   0.10628682 
247810000   0.10504561 
247820000   0.10284148 
247830000  0.096395456 
247840000  0.099143472 
247850000  0.099084705 
247860000   0.10789255 
247870000  0.093431845 
247880000  0.091193802 
247890000   0.10306136 
247900000   0.10592047 
247910000   0.10084756 
247920000   0.10565055 
247930000  0.097784771 
247940000   0.10229029 
247950000   0.10085538 
247960000   0.10969914 
247970000    0.1022115 
247980000   0.10164101 
247990000   0.09967554 
248000000    0.1084661 
248010000   0.10163262 
248020000  0.097667566 
248030000   0.10008007 
248040000   0.11451486 
248050000   0.10086966 
248060000  0.096403777 
248070000   0.09858326 
248080000  0.097012668 
248090000  0.095263117 
248100000   0.10238301 
248110000   0.10359858 
248120000   0.09683216 
248130000  0.099143111 
248140000    0.1099959 
248150000   0.10355672 
248160000  0.097896114 
248170000  0.094137373 
248180000   0.10036461 
248190000   0.09143587 
248200000  0.096669895 
248210000  0.091343274 
248220000   0.10543591 
248230000  0.096623951 
248240000   0.10467355 
248250000   0.10337879 
248260000  0.096312118 
248270000  0.093060804 
248280000   0.10379176 
248290000   0.10010098 
248300000  0.089884109 
248310000  0.097736729 
248320000   0.09385487 
248330000  0.092868863 
248340000  0.095745087 
248350000  0.097505386 
248360000   0.10730947 
248370000  0.093051427 
248380000   0.10076868 
248390000   0.10716603 
248400000   0.10073039 
248410000   0.10250468 
248420000  0.094430875 
248430000  0.099658984 
248440000   0.10067563 
248450000   0.10470814 
248460000  0.095763159 
248470000  0.099921652 
248480000  0.098127303 
248490000   0.10109997 
248500000   0.10173291 
248510000   0.11030325 
248520000   0.10266304 
248530000   0.10037551 
248540000   0.11306953 
248550000  0.092943721 
248560000   0.10567672 
248570000   0.10659947 
248580000   0.10516234 
248590000   0.10179717 
248600000   0.09731253 
248610000   0.10587873 
248620000  0.099075909 
248630000  0.096087972 
248640000   0.10530869 
248650000   0.10829529 
248660000   0.10749324 
248670000  0.095898555 
248680000   0.10037914 
248690000  0.098655619 
248700000  0.088296748 
248710000   0.10508454 
248720000   0.10338371 
248730000   0.11001325 
248740000   0.10251195 
248750000   0.10284299 
248760000  0.099410694 
248770000   0.10196326 
248780000   0.10435368 
248790000   0.11231108 
248800000   0.10012323 
248810000  0.098293286 
248820000  0.093672138 
248830000   0.10886592 
248840000  0.094500858 
248850000  0.099215006 
248860000  0.094887907 
248870000   0.10061887 
248880000   0.10404574 
248890000  0.093729514 
248900000    0.1078798 
248910000  0.095393949 
248920000   0.10381368 
248930000  0.095583938 
248940000   0.10285475 
248950000  0.098695956 
248960000   0.10097374 
248970000  0.098715085 
248980000  0.094282813 
248990000  0.099030968 
249000000   0.09910774 
249010000  0.093033707 
249020000   0.10178514 
249030000   0.10004229 
249040000   0.10522615 
249050000  0.095912802 
249060000   0.10543473 
249070000   0.10330467 
249080000    0.1056126 
249090000   0.10173309 
249100000   0.10744927 
249110000  0.099338594 
249120000   0.09964534 
249130000  0.096676722 
249140000   0.10067853 
249150000  0.096765537 
249160000  0.098053252 
249170000   0.10012323 
249180000  0.096190933 
249190000  0.088406737 
249200000  0.094865351 
249210000  0.097367078 
249220000   0.10158076 
249230000   0.10896407 
249240000  0.093731296 
249250000  0.090681252 
249260000   0.10371582 
249270000   0.09244059 
249280000   0.10339521 
249290000   0.10328607 
249300000    0.1085766 
249310000   0.10165417 
249320000   0.10006628 
249330000   0.10203849 
249340000  0.097056757 
249350000   0.10977677 
249360000   0.10587801 
249370000   0.10206542 
249380000   0.10463576 
249390000   0.10001942 
249400000   0.10654434 
249410000   0.10168926 
249420000   0.10393848 
249430000  0.095931151 
249440000     0.101938 
249450000  0.096593158 
249460000   0.10131664 
249470000   0.10153641 
249480000    0.1039318 
249490000   0.10048726 
249500000   0.10310339 
249510000  0.096292918 
249520000  0.098667133 
249530000  0.097417087 
249540000   0.10326186 
249550000  0.099600264 
249560000  0.098582026 
249570000    0.1044919 
249580000   0.10178797 
249590000   0.10981297 
249600000  0.092920045 
249610000    0.0992485 
249620000  0.097008706 
249630000  0.097241044 
249640000   0.10437498 
249650000  0.093812205 
249660000   0.10075684 
249670000   0.09869011 
249680000   0.10188779 
249690000  0.099670552 
249700000  0.095351882 
249710000   0.10002417 
249720000   0.10833068 
249730000  0.095670771 
249740000    0.1004868 
249750000  0.097969837 
249760000  0.094643659 
249770000  0.099292094 
249780000    0.0970782 
249790000   0.10175609 
249800000  0.099142498 
249810000   0.10342139 
249820000   0.10916387 
249830000  0.092783763 
249840000   0.10223446 
249850000  0.097752795 
249860000  0.098386538 
249870000   0.10238771 
249880000   0.10303844 
249890000  0.098528871 
249900000   0.10212554 
249910000  0.099480977 
249920000   0.11051179 
249930000  0.096830865 
249940000   0.11096361 
249950000  0.099976792 
249960000   0.10731251 
249970000    0.1001108 
249980000   0.10557268 
249990000   0.10683681 
250000000   0.10021788 
250010000  0.094591362 
250020000   0.10461942 
250030000   0.09387838 
250040000   0.10005352 
250050000  0.099231873 
250060000  0.093743506 
250070000   0.10750031 
250080000   0.10113908 
250090000   0.10330281 
250100000   0.10757772 
250110000  0.093043741 
250120000   0.10221061 
250130000  0.095957681 
250140000   0.10449946 
250150000   0.10439539 
250160000   0.10479892 
250170000  0.097417955 
250180000  0.095011174 
250190000   0.10363091 
250200000   0.10426389 
250210000   0.10722901 
250220000   0.10732647 
250230000  0.098268656 
250240000  0.097150682 
250250000  0.097815776 
250260000  0.094899202 
250270000   0.10067832 
250280000    0.1051202 
250290000  0.097875472 
250300000  0.095053354 
250310000  0.098413884 
250320000   0.10730412 
250330000  0.098565169 
250340000   0.09870771 
250350000  0.099306226 
250360000   0.10171427 
250370000  0.098240226 
250380000  0.098769975 
250390000   0.11014652 
250400000   0.10356394 
250410000   0.10057423 
250420000  0.098240325 
250430000  0.097930908 
250440000  0.096175808 
250450000   0.10620254 
250460000   0.11005882 
250470000   0.10481871 
250480000   0.10700193 
250490000   0.10368851 
250500000   0.10512356 
250510000   0.10813432 
250520000  0.098982347 
250530000   0.10447733 
250540000   0.10324155 
250550000  0.097218679 
250560000  0.096954379 
250570000   0.10930632 
250580000   0.10359904 
250590000  0.095774197 
250600000   0.10308192 
250610000   0.10015236 
250620000  0.099806504 
250630000   0.10229481 
250640000   0.09653429 
250650000   0.10907314 
250660000   0.10558105 
250670000  0.099256541 
250680000   0.10463979 
250690000  0.094083101 
250700000   0.10033185 
250710000  0.099334767 
250720000   0.10476242 
250730000   0.10141784 
250740000   0.10440017 
250750000   0.10806871 
250760000    0.1031366 
250770000   0.09798581 
250780000   0.10703901 
250790000   0.09563762 
250800000   0.10519201 
250810000  0.093891699 
250820000   0.10117927 
250830000   0.10738013 
250840000  0.097096134 
250850000   0.10386483 
250860000  0.094618187 
250870000  0.094501348 
250880000   0.10329691 
250890000  0.097531986 
250900000  0.099873807 
250910000  0.099258013 
250920000  0.095271301 
250930000   0.10301565 
250940000   0.10316771 
250950000  0.094825389 
250960000   0.10272578 
250970000   0.10850044 
250980000   0.10545112 
250990000   0.10433573 
251000000    0.1000298 
251010000  0.097537047 
251020000   0.10350259 
251030000   0.10614339 
251040000   0.10529793 
251050000  0.096913212 
251060000   0.10286839 
251070000  0.091951458 
251080000   0.10984796 
251090000  0.095846405 
251100000  0.097484262 
251110000   0.10557989 
251120000   0.10498197 
251130000  0.099075851 
251140000  0.099064693 
251150000   0.09575638 
251160000   0.10124997 
251170000  0.089639893 
251180000   0.10228523 
251190000  0.094588203 
251200000   0.10293779 
251210000   0.10439887 
251220000   0.10618564 
251230000  0.098533376 
251240000   0.10142749 
251250000   0.10065509 
251260000  0.098836114 
251270000   0.09046701 
251280000  0.094978741 
251290000  0.099794479 
251300000   0.10032627 
251310000   0.10046522 
251320000  0.092512958 
251330000  0.093096455 
251340000   0.10107786 
251350000  0.096482834 
251360000  0.099731533 
251370000   0.10055308 
251380000   0.10059044 
251390000   0.10777314 
251400000  0.097709727 
251410000   0.09886939 
251420000  0.099444616 
251430000  0.091943737 
251440000   0.10132969 
251450000   0.10148655 
251460000   0.10331763 
251470000   0.10101507 
251480000  0.099916721 
251490000   0.09632166 
251500000   0.10466409 
251510000  0.097210793 
251520000  0.090352189 
251530000  0.097957911 
251540000  0.093620193 
251550000  0.097201809 
251560000   0.10255288 
251570000   0.10130057 
251580000  0.098947698 
251590000   0.10782008 
251600000  0.098040271 
251610000   0.11003958 
251620000   0.09625675 
251630000  0.099902538 
251640000   0.10480977 
251650000  0.098731032 
251660000   0.10111859 
251670000  0.099761275 
251680000   0.10347004 
251690000   0.10180277 
251700000   0.09958282 
251710000  0.095128499 
251720000   0.10381212 
251730000  0.095797046 
251740000  0.098338061 
251750000   0.10957765 
251760000   0.10070461 
251770000  0.091959103 
251780000   0.10383477 
251790000  0.097508307 
251800000  0.096844806 
251810000   0.10390785 
251820000  0.099608888 
251830000   0.10718949 
251840000     0.103931 
251850000  0.099581819 
251860000  0.095627663 
251870000   0.10274947 
251880000   0.10270847 
251890000   0.10351764 
251900000   0.10596995 
251910000   0.11205799 
251920000   0.10657035 
251930000   0.09383924 
251940000  0.099716755 
251950000  0.096120669 
251960000   0.10080424 
251970000  0.090982948 
251980000   0.10447514 
251990000   0.10688069 
252000000   0.10463608 
252010000  0.094401634 
252020000  0.098252924 
252030000    0.1005749 
252040000   0.10202396 
252050000  0.098863259 
252060000  0.097477286 
252070000   0.09763107 
252080000   0.10089254 
252090000  0.098523535 
252100000   0.10053052 
252110000  0.092792522 
252120000    0.1051177 
252130000  0.094557175 
252140000   0.10776817 
252150000   0.11291515 
252160000   0.10012623 
252170000  0.095254079 
252180000  0.099339306 
252190000    0.1114376 
252200000   0.10500846 
252210000   0.10189904 
252220000   0.09869417 
252230000  0.099751616 
252240000   0.10644576 
252250000  0.091733142 
252260000  0.098684363 
252270000  0.099614428 
252280000   0.10402207 
252290000  0.097126648 
252300000  0.088626648 
252310000   0.11116071 
252320000  0.098349534 
252330000  0.097602484 
252340000   0.10361178 
252350000   0.10281314 
252360000   0.10217446 
252370000  0.099969631 
252380000  0.095148492 
252390000   0.10066531 
252400000  0.098877095 
252410000   0.10590443 
252420000  0.096629565 
252430000    0.1043806 
252440000  0.098563337 
252450000  0.096510193 
252460000  0.096689182 
252470000  0.092622699 
252480000   0.10322812 
252490000   0.10305372 
252500000  0.090706843 
252510000   0.10104043 
252520000  0.097196997 
252530000   0.10560875 
252540000   0.09702533 
252550000   0.10169368 
252560000   0.10280759 
252570000    0.1031343 
252580000   0.10027254 
252590000  0.092510257 
252600000   0.10655973 
252610000   0.10447075 
252620000   0.10505194 
252630000   0.10325913 
252640000   0.11064101 
252650000   0.10330781 
252660000   0.10153366 
252670000   0.11004095 
252680000   0.10662323 
252690000   0.09821709 
252700000   0.10437083 
252710000   0.10990199 
252720000    0.1053825 
252730000   0.10447683 
252740000   0.10662869 
252750000  0.098261469 
252760000   0.10543597 
252770000  0.089696283 
252780000  0.099506907 
252790000  0.099813465 
252800000   0.10048568 
252810000   0.10188448 
252820000   0.10407322 
252830000  0.099422856 
252840000   0.09862457 
252850000  0.095853029 
252860000   0.11130987 
252870000  0.099894119 
252880000  0.099640368 
252890000  0.094564394 
252900000  0.095078145 
252910000     0.102205 
252920000  0.093705555 
252930000  0.096568465 
252940000  0.096279987 
252950000  0.094098979 
252960000  0.097273399 
252970000  0.093906893 
252980000   0.10232176 
252990000  0.095940925 
253000000  0.095173272 
253010000   0.10357749 
253020000   0.10636947 
253030000  0.091842329 
253040000   0.09716779 
253050000   0.10581097 
253060000  0.098555479 
253070000   0.10381137 
253080000   0.10079803 
253090000   0.10310197 
253100000   0.10164852 
253110000  0.098402298 
253120000  0.096196837 
253130000  0.099024803 
253140000   0.10064223 
253150000  0.099760005 
253160000  0.097354819 
253170000   0.11060722 
253180000  0.098638791 
253190000   0.10136762 
253200000   0.10038148 
253210000  0.094579678 
253220000   0.10018938 
253230000  0.099894709 
253240000   0.10111904 
253250000  0.096162206 
253260000   0.10177793 
253270000  0.099377978 
253280000  0.098787925 
253290000  0.089757842 
253300000  0.096310629 
253310000  0.094916182 
253320000   0.10127883 
253330000  0.094363149 
253340000   0.10179078 
253350000  0.099513613 
253360000  0.090270334 
253370000  0.097239182 
253380000   0.11103982 
253390000  0.097804653 
253400000   0.10336079 
253410000  0.098718017 
253420000   0.10305236 
253430000   0.10260217 
253440000   0.10636667 
253450000   0.10535907 
253460000   0.10665992 
253470000  0.093681271 
253480000   0.10771385 
253490000   0.10498322 
253500000    0.1017431 
253510000  0.099412748 
253520000  0.099495958 
253530000   0.10916449 
253540000  0.098483299 
253550000    0.1015384 
253560000  0.097249813 
253570000  0.088823696 
253580000  0.098990805 
253590000   0.10275106 
253600000  0.092325296 
253610000   0.10108615 
253620000  0.094702807 
253630000   0.10160456 
253640000   0.10116225 
253650000  0.098676032 
253660000  0.096797248 
253670000  0.099155238 
253680000  0.096116385 
253690000  0.099386065 
253700000  0.099420505 
253710000  0.093344225 
253720000   0.10085273 
253730000   0.10550902 
253740000   0.10072972 
253750000   0.10698944 
253760000  0.090937389 
253770000   0.09265018 
253780000   0.10206635 
253790000    0.1114357 
253800000   0.10400805 
253810000  0.092153181 
253820000   0.10187128 
253830000   0.10325723 
253840000   0.10298014 
253850000  0.098143129 
253860000  0.090149609 
253870000  0.095475217 
253880000   0.10457196 
253890000   0.10183161 
253900000  0.097785609 
253910000   0.10875662 
253920000  0.099489372 
253930000   0.10343251 
253940000   0.10226274 
253950000   0.08953215 
253960000   0.10248352 
253970000   0.10192986 
253980000   0.10070756 
253990000   0.10547314 
254000000  0.099094183 
254010000   0.10127354 
254020000    0.1031646 
254030000  0.099984664 
254040000   0.10907142 
254050000   0.10323754 
254060000   0.10890505 
254070000  0.096275121 
254080000  0.094982018 
254090000  0.090048248 
254100000  0.098410681 
254110000   0.09630388 
254120000   0.10042618 
254130000   0.10695456 
254140000   0.10235535 
254150000   0.10293864 
254160000  0.098708339 
254170000  0.098216175 
254180000   0.10450559 
254190000   0.10258668 
254200000  0.097597428 
254210000   0.10237988 
254220000  0.097064814 
254230000  0.093960023 
254240000  0.097644475 
254250000   0.10764004 
254260000  0.096317504 
254270000   0.09653516 
254280000   0.10175575 
254290000  0.094825722 
254300000   0.09861597 
254310000  0.094630102 
254320000   0.10170748 
254330000   0.10299658 
254340000   0.09445683 
254350000  0.097674264 
254360000   0.10463877 
254370000  0.099757278 
254380000  0.097219709 
254390000  0.097311493 
254400000    0.1103927 
254410000    0.1009263 
254420000  0.094563345 
254430000  0.098513361 
254440000   0.10587425 
254450000    0.1048035 
254460000   0.10612373 
254470000   0.10616103 
254480000  0.092030787 
254490000  0.097978292 
254500000  0.096142058 
254510000  0.097743286 
254520000   0.10241114 
254530000   0.10511327 
254540000   0.10373424 
254550000   0.10221083 
254560000   0.10829177 
254570000   0.09021095 
254580000  0.098563796 
254590000  0.095129249 
254600000  0.095909014 
254610000  0.092280463 
254620000   0.10107708 
254630000   0.10709814 
254640000  0.098202278 
254650000   0.10944615 
254660000   0.09889502 
254670000   0.10729275 
254680000  0.099846249 
254690000  0.092829924 
254700000   0.10205079 
254710000   0.10270985 
254720000  0.098327723 
254730000  0.095734253 
254740000   0.10554599 
254750000  0.097273891 
254760000   0.10030753 
254770000   0.09746026 
254780000    0.0996909 
254790000   0.10797147 
254800000   0.10386334 
254810000   0.10701283 
254820000   0.09666616 
254830000   0.10260334 
254840000  0.095722452 
254850000  0.099651474 
254860000   0.10490687 
254870000   0.10468342 
254880000   0.10616152 
254890000   0.10249802 
254900000   0.10669698 
254910000  0.098251599 
254920000   0.10778234 
254930000  0.096993656 
254940000  0.093256358 
254950000  0.090322835 
254960000  0.098259774 
254970000   0.10490951 
254980000   0.10594133 
254990000  0.096844161 
255000000  0.098764994 
255010000   0.10088843 
255020000   0.10354042 
255030000   0.09468371 
255040000   0.09796559 
255050000  0.096247607 
255060000   0.10257358 
255070000  0.098706106 
255080000   0.11144657 
255090000  0.098667674 
255100000  0.099119191 
255110000   0.10099746 
255120000   0.10994377 
255130000   0.10689402 
255140000  0.097455211 
255150000   0.10187267 
255160000   0.10858775 
255170000   0.10387233 
255180000   0.09913777 
255190000   0.10909166 
255200000    0.1002605 
255210000   0.11129093 
255220000  0.096327736 
255230000  0.095821613 
255240000  0.097602223 
255250000   0.10282446 
255260000  0.090037761 
255270000   0.10249297 
255280000   0.10952306 
255290000  0.095757306 
255300000   0.10701156 
255310000  0.091112217 
255320000   0.10719372 
255330000   0.09931967 
255340000   0.10127056 
255350000   0.10895502 
255360000   0.10575939 
255370000  0.096533829 
255380000   0.10584807 
255390000   0.10084167 
255400000  0.099334743 
255410000  0.094961469 
255420000  0.096037654 
255430000  0.098926404 
255440000  0.099348669 
255450000  0.093314303 
255460000   0.10143747 
255470000  0.097260835 
255480000   0.10362188 
255490000   0.10025804 
255500000  0.096456221 
255510000   0.10436376 
255520000  0.094896513 
255530000  0.099078383 
255540000   0.10444475 
255550000   0.10268726 
255560000    0.1045619 
255570000    0.1127371 
255580000     0.110196 
255590000   0.10510816 
255600000   0.10133824 
255610000   0.10576948 
255620000   0.10037567 
255630000   0.10218972 
255640000   0.10605085 
255650000    0.1013732 
255660