LAMMPS data file via write_data, version 29 Sep 2021, timestep = 1000000

58 atoms
4 atom types
56 bonds
1 bond types
58 ellipsoids

0 33 xlo xhi
0 33 ylo yhi
0 33 zlo zhi

Masses

1 3.1575
2 3.1575
3 3.1575
4 3.1575

Atoms # hybrid

1 3 32.415303504299466 0.6463038201209627 11.129083575434375 1 1 3.7269849963023267 -1 0 0
2 2 32.55443467217063 0.9804530476456486 10.770174129787195 1 1 3.7269849963023267 -1 0 0
3 4 32.85040222190291 1.1862378526554223 10.374214878577726 1 1 3.7269849963023267 -1 0 0
4 1 0.2040666451074576 1.1919884870090456 9.959987142468103 1 1 3.7269849963023267 0 0 0
5 3 0.49762732136275606 0.987634797060334 9.550467927353539 1 1 3.7269849963023267 0 0 0
6 2 0.6278068423960173 0.666955975502403 9.151029429933436 1 1 3.7269849963023267 0 0 0
7 1 0.5687158929135742 0.3145989502525644 8.7570972460386 1 1 3.7269849963023267 0 0 0
8 2 0.3358006073279317 0.05295183466346007 8.374995869393 1 1 3.7269849963023267 0 0 0
9 2 32.97742841193343 32.979670672484204 7.976893826782755 1 1 3.7269849963023267 -1 -1 0
10 2 32.62027888795294 0.1296958701467598 7.547197800620949 1 1 3.7269849963023267 -1 0 0
11 2 32.41595202669959 0.4284189965630126 7.134596011152384 1 1 3.7269849963023267 -1 0 0
12 4 32.421584015705626 0.7662754644661116 6.758240289414601 1 1 3.7269849963023267 -1 0 0
13 1 32.59458734847748 1.049422260163378 6.381359661792263 1 1 3.7269849963023267 -1 0 0
14 3 32.89563345031228 1.201861514072749 5.967651707485459 1 1 3.7269849963023267 -1 0 0
15 3 0.2558807755795323 1.1491617433068813 5.5394058116481 1 1 3.7269849963023267 0 0 0
16 4 0.5280378395395237 0.9062017140806103 5.120682900970677 1 1 3.7269849963023267 0 0 0
17 1 0.6120735419352777 0.5620806792271318 4.74032166459109 1 1 3.7269849963023267 0 0 0
18 2 0.47885990532332967 0.2370349347419679 4.359887205201681 1 1 3.7269849963023267 0 0 0
19 3 0.16643551859346287 0.023894625249237116 3.963338287844775 1 1 3.7269849963023267 0 0 0
20 2 32.823041709927494 0.024020757793446326 3.5549270380936897 1 1 3.7269849963023267 -1 0 0
21 4 32.55967629695419 0.21483263354991544 3.134806849170352 1 1 3.7269849963023267 -1 0 0
22 4 32.42979795965019 0.5054508482202914 2.718267371234097 1 1 3.7269849963023267 -1 0 0
23 1 32.4711438094732 0.8337413869193353 2.311988973748071 1 1 3.7269849963023267 -1 0 0
24 1 32.712877032699105 1.0989655451305824 1.9333210570255415 1 1 3.7269849963023267 -1 0 0
25 3 0.035634908287909245 1.1755750372057274 1.5100726407919334 1 1 3.7269849963023267 0 0 0
26 3 0.3596489110268871 1.0407050144463215 1.1106473058200514 1 1 3.7269849963023267 0 0 0
27 2 0.5690529423049308 0.7406422092961988 0.7154601362882589 1 1 3.7269849963023267 0 0 0
28 1 0.5697022378157981 0.39024101013067514 0.31914453878112575 1 1 3.7269849963023267 0 0 0
29 1 0.36793121626447817 0.1175293667570699 32.91878917962546 1 1 3.7269849963023267 0 0 -1
30 4 32.80201497229913 1.152101379804686 32.784275992027176 2 1 3.7269849963023267 -1 0 -1
31 4 32.51603407181803 0.9302272067016232 0.14318545655692444 2 1 3.7269849963023267 -1 0 0
32 3 32.39504784184945 0.5906591565412571 0.5391447583051466 2 1 3.7269849963023267 -1 0 0
33 2 32.482225522780276 0.24785933589265818 0.9533723342990452 2 1 3.7269849963023267 -1 0 0
34 2 32.75639855653278 0.0181478266105842 1.362891598493307 2 1 3.7269849963023267 -1 0 0
35 4 0.09999059829082727 32.97660089869016 1.762330153442591 2 1 3.7269849963023267 0 -1 0
36 4 0.4245278496369726 0.12600888333904908 2.15626244491921 2 1 3.7269849963023267 0 0 0
37 1 0.6159537389019222 0.4193770112109091 2.5383638579085526 2 1 3.7269849963023267 0 0 0
38 1 0.5927100259630306 0.7844256149164519 2.9364659010292318 2 1 3.7269849963023267 0 0 0
39 3 0.35429257320456575 1.0897457778222335 3.366161867733879 2 1 3.7269849963023267 0 0 0
40 2 0.012447404227819515 1.2086026432786159 3.7787635767227306 2 1 3.7269849963023267 0 0 0
41 3 32.687886953862495 1.1145853307234745 4.155119416995652 2 1 3.7269849963023267 -1 0 0
42 4 32.46000526711076 0.8733962535512164 4.532000037899213 2 1 3.7269849963023267 -1 0 0
43 1 32.391829975940794 0.5429137936079138 4.945707955957564 2 1 3.7269849963023267 -1 0 0
44 2 32.53713907403492 0.20908651598408798 5.373953820086787 2 1 3.7269849963023267 -1 0 0
45 2 32.842956191678915 0.010152043279446766 5.792676705497531 2 1 3.7269849963023267 -1 0 0
46 4 0.1970717881230247 0.01928091670632179 6.173038053689114 2 1 3.7269849963023267 0 0 0
47 1 0.4758191633989678 0.23305780365356113 6.553472485111375 2 1 3.7269849963023267 0 0 0
48 3 0.5995888046723645 0.5904356485434247 6.950021394134789 2 1 3.7269849963023267 0 0 0
49 3 0.5094329687123687 0.9217832389172025 7.358432552417587 2 1 3.7269849963023267 0 0 0
50 3 0.25624472453649966 1.1259062736396381 7.778552805733379 2 1 3.7269849963023267 0 0 0
51 3 32.94174073671164 1.1750441326273946 8.195092237557242 2 1 3.7269849963023267 -1 0 0
52 4 32.63577536991317 1.0490705072501985 8.601370582366945 2 1 3.7269849963023267 -1 0 0
53 3 32.44320951810958 0.7462550051249895 8.980038485041922 2 1 3.7269849963023267 -1 0 0
54 2 32.453903662530614 0.414702168500915 9.40328698047717 2 1 3.7269849963023267 -1 0 0
55 4 32.66900851370958 0.13738481518970413 9.802712318804206 2 1 3.7269849963023267 -1 0 0
56 1 0.01347737366661471 0.013979604523841482 10.197899507327374 2 1 3.7269849963023267 0 0 0
57 3 0.35179061228489106 0.10522442784029347 10.594215045844647 2 1 3.7269849963023267 0 0 0
58 2 0.5620596915448101 0.37143882170549075 10.994570418151309 2 1 3.7269849963023267 0 0 0

Velocities

1 -0.028799088606135212 -0.012701660164884786 -0.05152725636432125 0.048253450023165015 -0.0016854231749987478 -0.09072055919519263
2 -0.022685651231166996 -0.06472178887238882 -0.02278526404042448 -0.02607379982599495 0.01177519337165168 -0.03730882100486049
3 -0.036044656173519735 -0.03751787583646901 0.009147253024319573 -0.011453813815559417 0.03970896655081654 -0.015148738758528638
4 -0.05658360833977187 0.055355665160378896 -0.01589521004018172 -0.028805109701915074 0.022195513734218644 0.13777751909197752
5 0.05978420133051623 0.10112523420217624 0.08022408040901649 -0.03754960682892442 -0.011733858790584379 0.07344802924338996
6 0.08829665970846848 0.022112380577601412 0.08117078528317666 -0.019870460852178477 -0.056994066592577115 -0.01869107580368334
7 0.00025746859636964926 -0.053456366952418975 -0.04563470902507369 -0.006261776755524176 -0.05293189980813609 -0.0828821579872883
8 -0.05747946497477392 -0.0328835475920973 -0.02261434364990597 -0.08148147496715967 0.047698583609396036 -0.061826440923970646
9 0.00518623414694234 -0.052295153877611994 0.1189333725579425 -0.039066171649815795 0.3446991934185691 -0.0026747002981840403
10 0.10878349721518381 -0.010658505599857905 0.11596199654231827 0.34473478447760275 0.4510731806141361 0.0913752007820729
11 0.017219780617045485 -0.10799946201163117 0.033300061778983 0.32555970895945946 0.03365515045570286 0.11808264994735124
12 -0.010089534507690262 0.020182214945551502 -0.004472731741791904 0.1796994564348408 -0.07521380517241906 0.06126340324592038
13 0.05894113747493385 0.06307838477248572 0.07128030099345689 0.26707385693783087 -0.2823328197812144 -0.050974520427330874
14 -0.09687153942444285 0.021023624916339138 0.102645379834455 0.07361478772815393 -0.3411142367342891 -0.07589067807012255
15 -0.027714767433941478 0.0971546244065082 0.016698674953541513 -0.1530756676366238 -0.19559721774287953 -0.01645965758119507
16 0.025352338820601717 -0.02998977858170242 0.019300009909681514 -0.27533853649739015 -0.053599692755133085 0.03603020077997972
17 -0.0939008549861184 0.025618687653028212 0.09477177035881479 -0.30338431000865557 0.09776817182934915 -0.06447571388496844
18 -0.00588611539833863 -0.03399290513930102 0.05726940985911605 -0.23937553542636536 0.27110417190211367 0.05390879475526759
19 0.00998108770956642 -0.09611595487668555 0.0036237330091831764 -0.052263538397354446 0.31674408929219633 0.09658600261051685
20 0.11973444124578886 -0.013048426157407624 -0.04935555566971288 0.1299043159280955 0.3016227816646213 -0.06070245023553284
21 -0.012445844617866025 0.007296379872272516 0.02333669125863947 0.19046497124470868 0.06043784952867163 0.08292219935469568
22 -0.03890942349643923 0.1360075934217115 0.002498147108724659 0.10509039605915656 -0.0979110877598782 0.027686829211411926
23 0.06299441866122475 0.11722038117964952 0.06073312272336325 0.08996336067157076 -0.08573301913203209 -0.07454672753583472
24 0.03725458342812649 -0.05608197535536514 0.0201594329414988 0.05142912399975429 -0.03622045550639304 -0.13378438786098049
25 -0.11664436524375879 -0.07990241514629406 -0.05616747130496223 -0.0031084752491084824 -0.14197161297118108 -0.008126146199507012
26 -0.022768045947819653 -0.004081379249229736 0.020628227321170752 -0.07227029465293203 -0.08028296177697394 0.01670942643058047
27 0.0377670641166496 0.037233882477813424 -0.01228961375255605 0.010041347748408416 -0.0013759913395268166 0.016260602891623167
28 -0.009097030772724064 -0.033378555730133444 0.024862142331982574 0.04971382763829987 -0.03472652462958216 -0.042224046576165186
29 -0.05176995423393344 -0.05800911806369275 -0.02632951197593103 0.07947292012177987 -0.030202519688413542 -0.05558989129794273
30 0.004706492390875614 0.031122145760002384 0.05152748566754198 0.014278517826410767 -0.04612397454619413 0.0907209476673759
31 0.056509636230813225 0.03886145569997846 0.022785205688102352 -0.018199752344943962 0.02207468746725074 0.037308854596087564
32 0.026754890955008548 0.04462013702706022 -0.009147260214959837 -0.04132315559336888 0.0006417130515820977 0.0151481689171707
33 -0.06825503298094679 0.0400902183277652 0.01589532924192311 -0.02897113743038495 0.021978337943485207 -0.13777724544561548
34 -0.08191293990629617 -0.0842066103157844 -0.08022447549901252 0.0014789900364952234 0.03931201643824992 -0.07344794130121537
35 0.0018114340469084606 -0.09100537172316621 -0.08117115133871902 0.04979077866156195 0.03411936870046311 0.018691316456812632
36 0.051654019107263784 0.013767218275850757 0.0456347518107498 0.04943825279803183 0.019920431660422476 0.08288205262357484
37 0.016662343680677972 0.06409070308602298 0.022614574065292416 -0.06739282660652718 0.06612507674715502 0.061826366138422656
38 0.051824977246384726 0.008705728556164041 -0.11893320622867586 -0.34288274788450523 -0.052676378840144256 0.002674523851582456
39 0.03880720690401347 -0.10218358842922932 -0.11596191656116163 -0.3449071055234056 -0.45094077334088434 -0.0913752527723609
40 0.10873596755399423 0.01169935224524271 -0.0332996851532295 0.05288041876127144 -0.3229942241468144 -0.1180821904222344
41 -0.0221218128137576 0.004444764471676302 0.004472984244375157 0.11969779575042981 -0.15369232803421007 -0.06126302593178006
42 -0.045417495568153624 -0.07341756670018683 -0.07128058939569738 0.3424792001353724 -0.1837061274452811 0.05097407394599956
43 -0.04568686780355063 0.0879706399125929 -0.10264561359192714 0.3484821128831492 0.018397177695931743 0.07589064428368018
44 -0.1010230074777803 0.0012722797196983075 -0.016699061488053363 0.14861998411112745 0.19900353544521515 0.01645989853226505
45 0.03558811859078246 -0.01660249347912818 -0.01930019267096593 -0.020466013160982573 0.2797594957104268 -0.03603058762539625
46 -0.04934180701215756 0.08389898620539592 -0.09477147629635778 -0.1738926578388228 0.2671367991143663 0.0644756653602096
47 0.03126049489702304 0.01459304741938222 -0.05726919798628565 -0.3243822786659147 0.15992098844636693 -0.05390883548080255
48 0.09537035387251415 0.015568541166434302 -0.0036237974754671637 -0.3193666612541562 -0.032611614543591565 -0.09658603174959557
49 0.04398490027510391 -0.11212444280901895 0.049355648587517155 -0.2570114290520551 -0.2044420970368813 0.06070279728174521
50 -0.01030433371525801 0.010097510021113722 -0.02333652426387851 -0.008385269797568843 -0.19964822789224657 -0.08292215973214187
51 -0.14145130657999522 0.0018888624284101646 -0.0024979692785422995 0.12203900385301207 -0.07574324377089592 -0.027687035456214627
52 -0.09660268842523109 -0.09152413792003829 -0.06073354698307075 0.10632157318133659 -0.06433792819477846 0.07454665527947911
53 0.06388751285165045 -0.021247076678480678 -0.020159752233931526 0.04843776714503735 -0.040133637320960175 0.1337839500872276
54 0.04652423677494707 0.13351335841636355 0.05616789483819853 0.13619007062378907 0.040222805100588926 0.008126321724432738
55 -0.0020304331929317343 0.02304167615356455 -0.020628117258098908 0.0585258892114227 0.09079095346834298 -0.016709668363012922
56 -0.02602877599427371 -0.04620832640995767 0.01228981497650788 0.0039603024619296965 -0.009329291916526691 -0.016260858412606667
57 0.029825219507688162 0.01753053195731553 -0.024862431919757042 0.046546572908807274 -0.038869439652941186 0.04222402971295907
58 0.042405728901739846 0.06516827323670055 0.026329352083074832 0.04998310907060426 -0.0687741794349395 0.05558985180994507

Bonds

1 1 1 2
2 1 2 3
3 1 3 4
4 1 4 5
5 1 5 6
6 1 6 7
7 1 7 8
8 1 8 9
9 1 9 10
10 1 10 11
11 1 11 12
12 1 12 13
13 1 13 14
14 1 14 15
15 1 15 16
16 1 16 17
17 1 17 18
18 1 18 19
19 1 19 20
20 1 20 21
21 1 21 22
22 1 22 23
23 1 23 24
24 1 24 25
25 1 25 26
26 1 26 27
27 1 27 28
28 1 28 29
29 1 30 31
30 1 31 32
31 1 32 33
32 1 33 34
33 1 34 35
34 1 35 36
35 1 36 37
36 1 37 38
37 1 38 39
38 1 39 40
39 1 40 41
40 1 41 42
41 1 42 43
42 1 43 44
43 1 44 45
44 1 45 46
45 1 46 47
46 1 47 48
47 1 48 49
48 1 49 50
49 1 50 51
50 1 51 52
51 1 52 53
52 1 53 54
53 1 54 55
54 1 55 56
55 1 56 57
56 1 57 58

Ellipsoids

1 1.173984503142341 1.173984503142341 1.173984503142341 -0.10592706790542103 0.9881431026334222 -0.10201423582143934 -0.044110777512101934
2 1.173984503142341 1.173984503142341 1.173984503142341 -0.12578696350861215 0.8987635842591792 -0.41808013454639115 -0.04013303525212374
3 1.173984503142341 1.173984503142341 1.173984503142341 -0.12447892147003918 0.741563588443446 -0.6592326658723014 -0.0008571180981152594
4 1.173984503142341 1.173984503142341 1.173984503142341 -0.10185330677494363 0.5164024471010927 -0.8494991667906971 0.03613284031077143
5 1.173984503142341 1.173984503142341 1.173984503142341 0.08175963120960272 -0.25176835096792793 0.9618237790078235 -0.06944838580175955
6 1.173984503142341 1.173984503142341 1.173984503142341 0.05322520620764375 0.028355960241801148 0.9923221656657081 -0.10798025963776087
7 1.173984503142341 1.173984503142341 1.173984503142341 0.01757987194612684 0.3261733547831107 0.9333554849595802 -0.14882684377408403
8 1.173984503142341 1.173984503142341 1.173984503142341 -0.027430248282653842 0.5807010171942196 0.7933060496019265 -0.1808298143939118
9 1.173984503142341 1.173984503142341 1.173984503142341 -0.09056571068811739 0.7703449343328629 0.6018851380149693 -0.19000214428251858
10 1.173984503142341 1.173984503142341 1.173984503142341 -0.11164751237006276 0.9201805973546482 0.34963991614631473 -0.13621464778362732
11 1.173984503142341 1.173984503142341 1.173984503142341 -0.1116307365253938 0.9897628186056051 0.04029618214114207 -0.07927395078797439
12 1.173984503142341 1.173984503142341 1.173984503142341 -0.17098588142763593 0.9497528851338075 -0.2578655555114266 -0.04731427705467633
13 1.173984503142341 1.173984503142341 1.173984503142341 -0.20368346716429395 0.8479493965364596 -0.4892442496223178 0.011615951484110258
14 1.173984503142341 1.173984503142341 1.173984503142341 -0.1553412255176801 0.6936406896395806 -0.7002836003804117 0.0658374997189296
15 1.173984503142341 1.173984503142341 1.173984503142341 0.11311829931052605 -0.4467789774781799 0.8847036660086167 -0.06994439931517449
16 1.173984503142341 1.173984503142341 1.173984503142341 0.08910460989615428 -0.1580241524335287 0.9806000154049915 -0.07424517176658421
17 1.173984503142341 1.173984503142341 1.173984503142341 0.059888211410975625 0.1374544419974075 0.9810871515740974 -0.12242417867970348
18 1.173984503142341 1.173984503142341 1.173984503142341 0.005811265939695504 0.4176569808422236 0.8913721291559024 -0.17602443837720427
19 1.173984503142341 1.173984503142341 1.173984503142341 -0.04399200102308667 0.6479690112143945 0.7417672857926079 -0.16727868387721212
20 1.173984503142341 1.173984503142341 1.173984503142341 -0.0795344763355178 0.8408587933806665 0.5198779024902707 -0.12789731494742704
21 1.173984503142341 1.173984503142341 1.173984503142341 -0.14178995150110812 0.9509986673008171 0.2525183079781692 -0.10831273508330412
22 1.173984503142341 1.173984503142341 1.173984503142341 -0.15531079611648385 0.9856579326899629 -0.020957962187468822 -0.06259201351579362
23 1.173984503142341 1.173984503142341 1.173984503142341 -0.15134042073769974 0.9425869144337902 -0.29714807238113095 -0.01813860163577469
24 1.173984503142341 1.173984503142341 1.173984503142341 -0.11300643822578636 0.8132768410239175 -0.5702843299622139 -0.024209662806985926
25 1.173984503142341 1.173984503142341 1.173984503142341 0.08446360787402413 -0.6145879107205595 0.7841861200461995 -0.014132518102885041
26 1.173984503142341 1.173984503142341 1.173984503142341 0.08604946795929291 -0.35055069683556034 0.9308745064521415 -0.05641233242392875
27 1.173984503142341 1.173984503142341 1.173984503142341 0.06732531671133715 -0.06598003714045064 0.9925933683909195 -0.07663120418622789
28 1.173984503142341 1.173984503142341 1.173984503142341 0.041926686331574405 0.2396444389796327 0.967059905278491 -0.07488548218544964
29 1.173984503142341 1.173984503142341 1.173984503142341 0.022437056509383067 0.5304808017751843 0.8446117263325578 -0.06868572766367798
30 1.173984503142341 1.173984503142341 1.173984503142341 0.846956288263016 0.05735811690409773 -0.09937976974956023 -0.519132693597191
31 1.173984503142341 1.173984503142341 1.173984503142341 0.9679226973531208 0.07555112924188807 -0.10828223930903977 -0.21375835765919096
32 1.173984503142341 1.173984503142341 1.173984503142341 0.9895109567992872 0.0983673262151633 -0.07628633844539469 0.07329618048734697
33 1.173984503142341 1.173984503142341 1.173984503142341 0.9262028692212826 0.10285995856719768 -0.033158861257693496 0.3612043242956971
34 1.173984503142341 1.173984503142341 1.173984503142341 0.7841969422735809 0.1071322785069883 0.0055118966372186984 0.611168920697157
35 1.173984503142341 1.173984503142341 1.173984503142341 0.5801861286031075 0.10786745647957602 0.05345327632988252 0.8055379663670523
36 1.173984503142341 1.173984503142341 1.173984503142341 0.30778066995509434 0.10435950866512023 0.10755257579003445 0.9395810745189033
37 1.173984503142341 1.173984503142341 1.173984503142341 0.020517598031778893 0.08804061570028371 0.16031433248343016 0.9829176938882085
38 1.173984503142341 1.173984503142341 1.173984503142341 -0.24640267740910915 0.04345592557005034 0.20594795462330023 0.9460352758142542
39 1.173984503142341 1.173984503142341 1.173984503142341 -0.5186419184246935 -0.005961057443564347 0.17602300805967983 0.836654604290522
40 1.173984503142341 1.173984503142341 1.173984503142341 0.7618071372714096 0.04053200117432399 -0.1307782781925344 -0.633169870126604
41 1.173984503142341 1.173984503142341 1.173984503142341 0.9111189117941875 0.10709616117341726 -0.14143983228297702 -0.3720047239977691
42 1.173984503142341 1.173984503142341 1.173984503142341 0.9707785398264168 0.16886442071469454 -0.11448446638675533 -0.12636115299141798
43 1.173984503142341 1.173984503142341 1.173984503142341 0.9763736309738679 0.1633934736834992 -0.04204822821583819 0.13501500657502444
44 1.173984503142341 1.173984503142341 1.173984503142341 0.8922753613488288 0.13234531768841581 -0.013140484925033261 0.43145883241823246
45 1.173984503142341 1.173984503142341 1.173984503142341 0.7211294251349382 0.11588067095218296 0.004861324179096101 0.6830229789922527
46 1.173984503142341 1.173984503142341 1.173984503142341 0.48669279286895695 0.12193348818810418 0.060880894760150704 0.862876507085979
47 1.173984503142341 1.173984503142341 1.173984503142341 0.20960520207068437 0.11152952789610976 0.1363067482725479 0.9617937897738489
48 1.173984503142341 1.173984503142341 1.173984503142341 -0.06422455602638905 0.0666531354832798 0.15960823524904572 0.9828315100637272
49 1.173984503142341 1.173984503142341 1.173984503142341 -0.35222920434949173 0.014498370996071881 0.1499108127266338 0.9237159374339194
50 1.173984503142341 1.173984503142341 1.173984503142341 0.6021137330345766 0.04685348871881182 -0.17216501649960622 -0.7782178423678894
51 1.173984503142341 1.173984503142341 1.173984503142341 0.7957504723664185 0.08536423309753596 -0.14405607245042373 -0.5820154477558561
52 1.173984503142341 1.173984503142341 1.173984503142341 0.9292854152403925 0.10920998330006772 -0.10633014811814688 -0.33644568086135845
53 1.173984503142341 1.173984503142341 1.173984503142341 0.9924559385405686 0.07506958123185187 -0.08786992800304685 -0.040922411732116144
54 1.173984503142341 1.173984503142341 1.173984503142341 0.9645333193839575 0.07568294899223585 -0.040074043754065244 0.24968307521175884
55 1.173984503142341 1.173984503142341 1.173984503142341 0.8438733159514833 0.10262246760399975 -0.00744952648397361 0.5265842385820891
56 1.173984503142341 1.173984503142341 1.173984503142341 0.655292747902824 0.1000280972689168 0.01998526692300262 0.74845599964777
57 1.173984503142341 1.173984503142341 1.173984503142341 0.39699182140978967 0.07879083395417916 0.03402495738602268 0.9138007444150076
58 1.173984503142341 1.173984503142341 1.173984503142341 0.09157501206135424 0.059542379832500866 0.04093725959906998 0.9931731283851589
