LAMMPS (29 Sep 2021 - Update 2)
variable number	equal 1
variable ofreq	equal 1000
variable efreq	equal 1000
variable T      equal 0.1
variable rhos   equal 0.2

units lj

dimension 3

newton on

boundary  p p p

atom_style hybrid bond ellipsoid oxdna
WARNING: Atom style hybrid defines both, per-type and per-atom masses; both must be set, but only per-atom masses will be used (../atom_vec_hybrid.cpp:157)
atom_modify sort 0 1.0

# Pair interactions require lists of neighbours to be calculated
neighbor 2.0 bin
neigh_modify every 1 delay 0 check yes

read_data output.dat.lammps
Reading data file ...
  orthogonal box = (0.0000000 0.0000000 0.0000000) to (33.000000 33.000000 33.000000)
  1 by 1 by 1 MPI processor grid
  reading atoms ...
  58 atoms
  reading velocities ...
  58 velocities
  58 ellipsoids
  scanning bonds ...
  1 = max bonds/atom
  reading bonds ...
  56 bonds
Finding 1-2 1-3 1-4 neighbors ...
  special bond factors lj:    0        0        0       
  special bond factors coul:  0        0        0       
     2 = max # of 1-2 neighbors
     2 = max # of 1-3 neighbors
     4 = max # of 1-4 neighbors
     6 = max # of special neighbors
  special bonds CPU = 0.000 seconds
  read_data CPU = 0.001 seconds

set atom * mass 3.1575
Setting atom values ...
  58 settings made for mass

group all type 1 4
58 atoms in group all

# oxDNA2 bond interactions - FENE backbone
bond_style oxdna2/fene
bond_coeff * 2.0 0.25 0.7564
special_bonds lj 0 1 1
Finding 1-2 1-3 1-4 neighbors ...
  special bond factors lj:    0        1        1       
  special bond factors coul:  0        0        0       
     2 = max # of 1-2 neighbors
     2 = max # of 1-3 neighbors
     4 = max # of 1-4 neighbors
     6 = max # of special neighbors
  special bonds CPU = 0.000 seconds

# oxDNA2 pair interactions
pair_style hybrid/overlay oxdna2/excv oxdna2/stk oxdna2/hbond oxdna2/xstk oxdna2/coaxstk oxdna2/dh
pair_coeff * * oxdna2/excv    2.0 0.7 0.675 2.0 0.515 0.5 2.0 0.33 0.32
pair_coeff * * oxdna2/stk     seqav ${T} 1.3523 2.6717 6.0 0.4 0.9 0.32 0.75 1.3 0 0.8 0.9 0 0.95 0.9 0 0.95 2.0 0.65 2.0 0.65
pair_coeff * * oxdna2/stk     seqav 0.1 1.3523 2.6717 6.0 0.4 0.9 0.32 0.75 1.3 0 0.8 0.9 0 0.95 0.9 0 0.95 2.0 0.65 2.0 0.65
pair_coeff * * oxdna2/hbond   seqav 0.0 8.0 0.4 0.75 0.34 0.7 1.5 0 0.7 1.5 0 0.7 1.5 0 0.7 0.46 3.141592653589793 0.7 4.0 1.5707963267948966 0.45 4.0 1.5707963267948966 0.45
pair_coeff 1 4 oxdna2/hbond   seqav 1.0678 8.0 0.4 0.75 0.34 0.7 1.5 0 0.7 1.5 0 0.7 1.5 0 0.7 0.46 3.141592653589793 0.7 4.0 1.5707963267948966 0.45 4.0 1.5707963267948966 0.45
pair_coeff 2 3 oxdna2/hbond   seqav 1.0678 8.0 0.4 0.75 0.34 0.7 1.5 0 0.7 1.5 0 0.7 1.5 0 0.7 0.46 3.141592653589793 0.7 4.0 1.5707963267948966 0.45 4.0 1.5707963267948966 0.45
pair_coeff * * oxdna2/xstk    47.5 0.575 0.675 0.495 0.655 2.25 0.791592653589793 0.58 1.7 1.0 0.68 1.7 1.0 0.68 1.5 0 0.65 1.7 0.875 0.68 1.7 0.875 0.68
pair_coeff * * oxdna2/coaxstk 58.5 0.4 0.6 0.22 0.58 2.0 2.891592653589793 0.65 1.3 0 0.8 0.9 0 0.95 0.9 0 0.95 40.0 3.116592653589793
pair_coeff * * oxdna2/dh      ${T} ${rhos} 0.815
pair_coeff * * oxdna2/dh      0.1 ${rhos} 0.815
pair_coeff * * oxdna2/dh      0.1 0.2 0.815

# NVE ensemble
fix 1 all nve/asphere
#fix 2 all langevin ${T} ${T} 2.5 457145 angmom 10

timestep 1e-5

#comm_style tiled
fix 3 all balance 1000 1.03 shift xyz 10 1.03
comm_modify cutoff 3.8

compute quat all property/atom quatw quati quatj quatk

compute erot all erotate/asphere
compute ekin all ke
compute epot all pe
variable erot equal c_erot
variable ekin equal c_ekin
variable epot equal c_epot
variable etot equal c_erot+c_ekin+c_epot
fix 5 all print ${efreq} "$(step)  ekin = ${ekin} |  erot = ${erot} | epot = ${epot} | etot = ${etot}" screen yes
fix 5 all print 1000 "$(step)  ekin = ${ekin} |  erot = ${erot} | epot = ${epot} | etot = ${etot}" screen yes

dump out all custom ${ofreq} out.${number}.lammpstrj id mol type x y z ix iy iz vx vy vz c_quat[1] c_quat[2] c_quat[3] c_quat[4] angmomx angmomy angmomz
dump out all custom 1000 out.${number}.lammpstrj id mol type x y z ix iy iz vx vy vz c_quat[1] c_quat[2] c_quat[3] c_quat[4] angmomx angmomy angmomz
dump out all custom 1000 out.1.lammpstrj id mol type x y z ix iy iz vx vy vz c_quat[1] c_quat[2] c_quat[3] c_quat[4] angmomx angmomy angmomz
dump_modify out sort id
dump_modify out format line "%d %d %d  %22.15le %22.15le %22.15le  %d %d %d  %22.15le %22.15le %22.15le  %22.15le %22.15le %22.15le %22.15le  %22.15le %22.15le %22.15le"

run 1000000
Neighbor list info ...
  update every 1 steps, delay 0 steps, check yes
  max neighbors/atom: 2000, page size: 100000
  master list distance cutoff = 5.6389877
  ghost atom cutoff = 5.6389877
  binsize = 2.8194939, bins = 12 12 12
  5 neighbor lists, perpetual/occasional/extra = 5 0 0
  (1) pair oxdna2/excv, perpetual
      attributes: half, newton on
      pair build: half/bin/newton
      stencil: half/bin/3d
      bin: standard
  (2) pair oxdna2/hbond, perpetual, copy from (1)
      attributes: half, newton on
      pair build: copy
      stencil: none
      bin: none
  (3) pair oxdna2/xstk, perpetual, copy from (1)
      attributes: half, newton on
      pair build: copy
      stencil: none
      bin: none
  (4) pair oxdna2/coaxstk, perpetual, copy from (1)
      attributes: half, newton on
      pair build: copy
      stencil: none
      bin: none
  (5) pair oxdna2/dh, perpetual, copy from (1)
      attributes: half, newton on
      pair build: copy
      stencil: none
      bin: none
WARNING: Communication cutoff adjusted to 5.638987723814632 (../comm.cpp:739)
0  ekin = 0 |  erot = 0 | epot = -94.9832041178905 | etot = -94.9832041178905
Per MPI rank memory allocation (min/avg/max) = 9.359 | 9.359 | 9.359 Mbytes
Step Temp E_pair E_mol TotEng Press Volume 
       0            0   -1.6491376   0.01149619   -1.6376415 9.7468748e-05        35937 
1000  ekin = 0.00160613136638574 |  erot = 0.0200894122108582 | epot = -95.0048996614853 | etot = -94.983204117908
2000  ekin = 0.00636310392950332 |  erot = 0.08013961321178 | epot = -95.0697068351018 | etot = -94.9832041179605
3000  ekin = 0.0140890257117889 |  erot = 0.179500056626408 | epot = -95.1767932003846 | etot = -94.9832041180464
4000  ekin = 0.0244886119159048 |  erot = 0.317098360449321 | epot = -95.3247910905284 | etot = -94.9832041181632
5000  ekin = 0.0371648361391645 |  erot = 0.49145805340618 | epot = -95.5118270078555 | etot = -94.9832041183102
6000  ekin = 0.0516349038792627 |  erot = 0.700723244798909 | epot = -95.7355622671605 | etot = -94.9832041184823
7000  ekin = 0.0673501383412034 |  erot = 0.942689874752621 | epot = -95.9932441317713 | etot = -94.9832041186775
8000  ekin = 0.0837191722701645 |  erot = 1.21484291686449 | epot = -96.2817662080251 | etot = -94.9832041188904
9000  ekin = 0.100133618106212 |  erot = 1.51439855752659 | epot = -96.5977362947497 | etot = -94.9832041191169
10000  ekin = 0.11599516324275 |  erot = 1.83835001110185 | epot = -96.9375492936968 | etot = -94.9832041193522
11000  ekin = 0.130742833176159 |  erot = 2.18351530143303 | epot = -97.2974622542009 | etot = -94.9832041195917
12000  ekin = 0.143879009477285 |  erot = 2.54658510012334 | epot = -97.6736682294311 | etot = -94.9832041198305
13000  ekin = 0.154992707744986 |  erot = 2.92416860568172 | epot = -98.0623654334922 | etot = -94.9832041200655
14000  ekin = 0.163778637801478 |  erot = 3.31283550489267 | epot = -98.4598182629874 | etot = -94.9832041202932
15000  ekin = 0.170050703711394 |  erot = 3.7091521599506 | epot = -98.8624069841731 | etot = -94.9832041205111
16000  ekin = 0.17374890184641 |  erot = 4.10971136984956 | epot = -99.2666643924139 | etot = -94.9832041207179
17000  ekin = 0.174938946464189 |  erot = 4.51115457134691 | epot = -99.6692976387244 | etot = -94.9832041209133
18000  ekin = 0.173804515578985 |  erot = 4.9101867670345 | epot = -100.067195403711 | etot = -94.9832041210977
19000  ekin = 0.170632600107198 |  erot = 5.30358545319529 | epot = -100.457422174575 | etot = -94.9832041212725
20000  ekin = 0.16579301181069 |  erot = 5.68820527615458 | epot = -100.837202409404 | etot = -94.9832041214387
21000  ekin = 0.159713596600834 |  erot = 6.06098071081542 | epot = -101.203898429015 | etot = -94.9832041215984
22000  ekin = 0.152853029197039 |  erot = 6.41892921678906 | epot = -101.554986367739 | etot = -94.9832041217525
23000  ekin = 0.145673198099171 |  erot = 6.75915712126264 | epot = -101.888034441264 | etot = -94.9832041219025
24000  ekin = 0.13861312401166 |  erot = 7.07886995431151 | epot = -102.200687200372 | etot = -94.9832041220491
25000  ekin = 0.132066117815575 |  erot = 7.37538823041346 | epot = -102.490658470421 | etot = -94.9832041221919
26000  ekin = 0.126361521652819 |  erot = 7.6461688656743 | epot = -102.755734509657 | etot = -94.9832041223296
27000  ekin = 0.121751939704945 |  erot = 7.88883167156507 | epot = -102.99378773373 | etot = -94.9832041224604
28000  ekin = 0.118406401106571 |  erot = 8.10118988147456 | epot = -103.202800405164 | etot = -94.9832041225825
29000  ekin = 0.116409436204187 |  erot = 8.28128344678021 | epot = -103.380897005678 | etot = -94.9832041226937
30000  ekin = 0.115765660945488 |  erot = 8.42741113292892 | epot = -103.526380916666 | etot = -94.9832041227913
31000  ekin = 0.116409072840724 |  erot = 8.53816310717544 | epot = -103.637776302888 | etot = -94.9832041228721
32000  ekin = 0.118216016765977 |  erot = 8.61245035391409 | epot = -103.713870493614 | etot = -94.9832041229335
33000  ekin = 0.121020588298336 |  erot = 8.64952953313394 | epot = -103.753754244405 | etot = -94.9832041229727
34000  ekin = 0.124631157101467 |  erot = 8.6490221620915 | epot = -103.756857442181 | etot = -94.9832041229878
35000  ekin = 0.128846723083374 |  erot = 8.61092730451663 | epot = -103.722978150579 | etot = -94.9832041229786
36000  ekin = 0.133471897463107 |  erot = 8.53562696020583 | epot = -103.652302980613 | etot = -94.9832041229436
37000  ekin = 0.138329507284293 |  erot = 8.42388380349586 | epot = -103.545417433663 | etot = -94.983204122883
38000  ekin = 0.14327007276169 |  erot = 8.27683117755202 | epot = -103.403305373111 | etot = -94.9832041227972
39000  ekin = 0.148177709095075 |  erot = 8.09595555566453 | epot = -103.227337387447 | etot = -94.9832041226877
40000  ekin = 0.15297233425563 |  erot = 7.88307200578318 | epot = -103.019248462596 | etot = -94.983204122557
41000  ekin = 0.157608400984719 |  erot = 7.64029354507418 | epot = -102.781106068467 | etot = -94.983204122408
42000  ekin = 0.162070692527957 |  erot = 7.36999564346364 | epot = -102.515270458235 | etot = -94.983204122243
43000  ekin = 0.166368000988336 |  erot = 7.07477750805765 | epot = -102.224349631112 | etot = -94.9832041220657
44000  ekin = 0.170525710817962 |  erot = 6.75742210884378 | epot = -101.911151941542 | etot = -94.9832041218799
45000  ekin = 0.174578395294841 |  erot = 6.42085711733208 | epot = -101.578639634314 | etot = -94.9832041216873
46000  ekin = 0.178563453540659 |  erot = 6.06811892923239 | epot = -101.229886504263 | etot = -94.98320412149
47000  ekin = 0.182516531436891 |  erot = 5.70232163480765 | epot = -100.868042287535 | etot = -94.9832041212906
48000  ekin = 0.186468977722178 |  erot = 5.32663212921456 | epot = -100.496305228026 | etot = -94.9832041210892
49000  ekin = 0.190446949101985 |  erot = 4.94425155026774 | epot = -100.117902620257 | etot = -94.9832041208878
50000  ekin = 0.194471148154189 |  erot = 4.55840204970183 | epot = -99.7360773185419 | etot = -94.9832041206859
51000  ekin = 0.198555789049924 |  erot = 4.17231682885095 | epot = -99.3540767383855 | etot = -94.9832041204846
52000  ekin = 0.202705488271004 |  erot = 3.7892307408938 | epot = -98.9751403494503 | etot = -94.9832041202855
53000  ekin = 0.206909514412468 |  erot = 3.41236884409929 | epot = -98.602482478601 | etot = -94.9832041200892
54000  ekin = 0.2111341064931 |  erot = 3.04493112422808 | epot = -98.2392693506189 | etot = -94.9832041198977
55000  ekin = 0.215314985140231 |  erot = 2.69007292661706 | epot = -97.8885920314702 | etot = -94.9832041197129
56000  ekin = 0.219353126383458 |  erot = 2.35088194909342 | epot = -97.553439195013 | etot = -94.9832041195361
57000  ekin = 0.223116771158549 |  erot = 2.03042618105883 | epot = -97.2367470714322 | etot = -94.9832041192148
58000  ekin = 0.226450564065996 |  erot = 1.73290642205131 | epot = -96.9425611051212 | etot = -94.9832041190039
59000  ekin = 0.229194083370043 |  erot = 1.46171516151274 | epot = -96.674113363815 | etot = -94.9832041189322
60000  ekin = 0.23120432849849 |  erot = 1.21848404454764 | epot = -96.432892491848 | etot = -94.9832041188019
61000  ekin = 0.232375754410649 |  erot = 1.00484561806969 | epot = -96.2204254912301 | etot = -94.9832041187498
62000  ekin = 0.232657737418292 |  erot = 0.821750521255297 | epot = -96.0376123773732 | etot = -94.9832041186996
63000  ekin = 0.232064057283515 |  erot = 0.669988319486612 | epot = -95.8852564954199 | etot = -94.9832041186498
64000  ekin = 0.230672982022528 |  erot = 0.550276065833311 | epot = -95.7641531664564 | etot = -94.9832041186006
65000  ekin = 0.228618766298267 |  erot = 0.463249676350246 | epot = -95.6750725612029 | etot = -94.9832041185544
66000  ekin = 0.226076950559472 |  erot = 0.409448875722231 | epot = -95.6187299447952 | etot = -94.9832041185135
67000  ekin = 0.223246495352695 |  erot = 0.38929548142849 | epot = -95.595746095263 | etot = -94.9832041184818
68000  ekin = 0.220331682664891 |  erot = 0.403064225483692 | epot = -95.6066000266094 | etot = -94.9832041184608
69000  ekin = 0.217526056463407 |  erot = 0.450877555976601 | epot = -95.6516077308912 | etot = -94.9832041184512
70000  ekin = 0.214999819189614 |  erot = 0.532701718461369 | epot = -95.730905656105 | etot = -94.983204118454
71000  ekin = 0.21289120646697 |  erot = 0.648344108094613 | epot = -95.8444394330349 | etot = -94.9832041184734
72000  ekin = 0.211301738100803 |  erot = 0.797424395483611 | epot = -95.9919302520867 | etot = -94.9832041185022
73000  ekin = 0.21029487608531 |  erot = 0.97938621456108 | epot = -96.1728852091966 | etot = -94.9832041185502
74000  ekin = 0.209897677920773 |  erot = 1.19339668409492 | epot = -96.3864984806415 | etot = -94.9832041186258
75000  ekin = 0.210104357477156 |  erot = 1.43829384966122 | epot = -96.6316023258938 | etot = -94.9832041187554
76000  ekin = 0.210881095632797 |  erot = 1.71213754643907 | epot = -96.906222761054 | etot = -94.9832041189822
77000  ekin = 0.212170498861681 |  erot = 2.01207815568935 | epot = -97.2074527737111 | etot = -94.98320411916
78000  ekin = 0.213896857443407 |  erot = 2.33533792419237 | epot = -97.5324389009731 | etot = -94.9832041193374
79000  ekin = 0.215975997412492 |  erot = 2.67831975723086 | epot = -97.8774998743296 | etot = -94.9832041196862
80000  ekin = 0.218328158570216 |  erot = 3.03682922593192 | epot = -98.2383615044161 | etot = -94.9832041199139
81000  ekin = 0.220883156363603 |  erot = 3.40734563523333 | epot = -98.6114329117433 | etot = -94.9832041201464
82000  ekin = 0.223585427506766 |  erot = 3.78626634200294 | epot = -98.9930558898896 | etot = -94.9832041203799
83000  ekin = 0.226399060492833 |  erot = 4.16994753236145 | epot = -99.3795507134657 | etot = -94.9832041206114
84000  ekin = 0.229311269561618 |  erot = 4.55474451858674 | epot = -99.7672599089884 | etot = -94.98320412084
85000  ekin = 0.232334038649261 |  erot = 4.93704958130301 | epot = -100.152587741014 | etot = -94.983204121062
86000  ekin = 0.235503766218337 |  erot = 5.31332683571789 | epot = -100.532034723212 | etot = -94.9832041212757
87000  ekin = 0.238878870136207 |  erot = 5.68014396560763 | epot = -100.902226957224 | etot = -94.9832041214798
88000  ekin = 0.242535449333163 |  erot = 6.03420099224327 | epot = -101.259940563249 | etot = -94.9832041216728
89000  ekin = 0.246561229762101 |  erot = 6.37235645849543 | epot = -101.602121810113 | etot = -94.9832041218553
90000  ekin = 0.251048132693497 |  erot = 6.6916514717923 | epot = -101.925903726509 | etot = -94.9832041220235
91000  ekin = 0.256083885547932 |  erot = 6.98933196454039 | epot = -102.228619972266 | etot = -94.983204122178
92000  ekin = 0.26174314763232 |  erot = 7.26286933634009 | epot = -102.507816606291 | etot = -94.9832041223189
93000  ekin = 0.268078648983846 |  erot = 7.5099794029522 | epot = -102.76126217438 | etot = -94.9832041224441
94000  ekin = 0.275112846552391 |  erot = 7.72863936182029 | epot = -102.986956330927 | etot = -94.9832041225547
95000  ekin = 0.282830596317184 |  erot = 7.91710235322218 | epot = -103.183137072189 | etot = -94.9832041226499
96000  ekin = 0.291173319062348 |  erot = 8.07390915825501 | epot = -103.348286600046 | etot = -94.9832041227287
97000  ekin = 0.300035105927225 |  erot = 8.19789663965435 | epot = -103.481135868373 | etot = -94.9832041227909
98000  ekin = 0.309261194547807 |  erot = 8.28820268511841 | epot = -103.580668002503 | etot = -94.983204122837
99000  ekin = 0.318649137634576 |  erot = 8.34426733780903 | epot = -103.64612059831 | etot = -94.9832041228665
100000  ekin = 0.327953117360934 |  erot = 8.36583194308094 | epot = -103.676989183321 | etot = -94.9832041228791
101000  ekin = 0.336891359390272 |  erot = 8.35293435598184 | epot = -103.673029838248 | etot = -94.9832041228754
102000  ekin = 0.345156864420043 |  erot = 8.30590192986648 | epot = -103.634262917142 | etot = -94.983204122855
103000  ekin = 0.352431344499661 |  erot = 8.2253426153861 | epot = -103.560978082703 | etot = -94.9832041228171
104000  ekin = 0.358402096659502 |  erot = 8.11213447331494 | epot = -103.453740692735 | etot = -94.9832041227608
105000  ekin = 0.362781355904147 |  erot = 7.96741430734656 | epot = -103.313399785937 | etot = -94.9832041226863
106000  ekin = 0.365327429187735 |  erot = 7.79256601115204 | epot = -103.141097562933 | etot = -94.9832041225927
107000  ekin = 0.365866494261433 |  erot = 7.58920813934741 | epot = -102.938278756088 | etot = -94.9832041224793
108000  ekin = 0.364313699115064 |  erot = 7.35918083578832 | epot = -102.706698657249 | etot = -94.983204122346
109000  ekin = 0.360691932083302 |  erot = 7.10453271175651 | epot = -102.448428766033 | etot = -94.983204122193
110000  ekin = 0.355146052696975 |  erot = 6.82750645360762 | epot = -102.165856628325 | etot = -94.9832041220207
111000  ekin = 0.347950405703005 |  erot = 6.53052317899326 | epot = -101.861677706526 | etot = -94.9832041218295
112000  ekin = 0.339507317541076 |  erot = 6.21616457124515 | epot = -101.538876010408 | etot = -94.9832041216222
113000  ekin = 0.33033481127416 |  erot = 5.88715251250335 | epot = -101.200691445179 | etot = -94.9832041214016
114000  ekin = 0.321042602696852 |  erot = 5.54632591641107 | epot = -100.85057264028 | etot = -94.9832041211718
115000  ekin = 0.312296754795632 |  erot = 5.19661474728247 | epot = -100.492115623015 | etot = -94.9832041209372
116000  ekin = 0.304775021677244 |  erot = 4.84101175238444 | epot = -100.128990894765 | etot = -94.9832041207035
117000  ekin = 0.299116616655524 |  erot = 4.48254277675838 | epot = -99.7648635138897 | etot = -94.9832041204758
118000  ekin = 0.295871507508948 |  erot = 4.12423661704776 | epot = -99.4033122448151 | etot = -94.9832041202584
119000  ekin = 0.295455081918239 |  erot = 3.76909590728681 | epot = -99.0477551092601 | etot = -94.9832041200551
120000  ekin = 0.298113752646048 |  erot = 3.42007017846707 | epot = -98.7013880509819 | etot = -94.9832041198688
121000  ekin = 0.303905802668625 |  erot = 3.08003197638088 | epot = -98.3671418987511 | etot = -94.9832041197016
122000  ekin = 0.312699678400022 |  erot = 2.75175645516853 | epot = -98.0476602531212 | etot = -94.9832041195527
123000  ekin = 0.324189450035461 |  erot = 2.4379043431652 | epot = -97.7452979126225 | etot = -94.9832041194218
124000  ekin = 0.337924797870081 |  erot = 2.14100771652454 | epot = -97.4621366336998 | etot = -94.9832041193052
125000  ekin = 0.353351128374731 |  erot = 1.86345770831136 | epot = -97.2000129558881 | etot = -94.983204119202
126000  ekin = 0.369854568506037 |  erot = 1.60749317784988 | epot = -96.9605518654662 | etot = -94.9832041191103
127000  ekin = 0.386806681687001 |  erot = 1.37518946686306 | epot = -96.7452002675775 | etot = -94.9832041190274
128000  ekin = 0.403604621550913 |  erot = 1.16844662885491 | epot = -96.5552553693581 | etot = -94.9832041189523
129000  ekin = 0.419703779117352 |  erot = 0.988976861067775 | epot = -96.3918847590692 | etot = -94.983204118884
130000  ekin = 0.434641444628466 |  erot = 0.838291213084485 | epot = -96.2561367765364 | etot = -94.9832041188234
131000  ekin = 0.448051314704408 |  erot = 0.717685927115942 | epot = -96.1489413605904 | etot = -94.98320411877
132000  ekin = 0.459669658121221 |  erot = 0.628228943603947 | epot = -96.0711027204501 | etot = -94.9832041187249
133000  ekin = 0.469334556129719 |  erot = 0.570747171828257 | epot = -96.0232858466477 | etot = -94.9832041186897
134000  ekin = 0.476979875946465 |  erot = 0.54581510152434 | epot = -96.0059990961371 | etot = -94.9832041186663
135000  ekin = 0.482625617640466 |  erot = 0.55374524174878 | epot = -96.0195749780441 | etot = -94.9832041186548
136000  ekin = 0.486366083703621 |  erot = 0.594580764301259 | epot = -96.0641509666621 | etot = -94.9832041186572
137000  ekin = 0.488357030741135 |  erot = 0.668090561050369 | epot = -96.1396517104655 | etot = -94.983204118674
138000  ekin = 0.488802690622509 |  erot = 0.773766899317206 | epot = -96.2457737086456 | etot = -94.9832041187058
139000  ekin = 0.487943256793969 |  erot = 0.910825725271872 | epot = -96.38197310082 | etot = -94.9832041187542
140000  ekin = 0.486043203432316 |  erot = 1.0782096082347 | epot = -96.5474569304856 | etot = -94.9832041188186
141000  ekin = 0.483380627674773 |  erot = 1.27459328894801 | epot = -96.741178035522 | etot = -94.9832041188992
142000  ekin = 0.480237671695443 |  erot = 1.49839175711174 | epot = -96.9618335478031 | etot = -94.983204118996
143000  ekin = 0.476891993305748 |  erot = 1.7477707538359 | epot = -97.2078668662503 | etot = -94.9832041191087
144000  ekin = 0.473609204370854 |  erot = 2.0206595666444 | epot = -97.4774728902526 | etot = -94.9832041192374
145000  ekin = 0.470636180812273 |  erot = 2.3147659594083 | epot = -97.7686062596005 | etot = -94.9832041193799
146000  ekin = 0.468195161934359 |  erot = 2.62759306081824 | epot = -98.0789923422901 | etot = -94.9832041195374
147000  ekin = 0.46647859552261 |  erot = 2.9564580275065 | epot = -98.4061407427367 | etot = -94.9832041197075
148000  ekin = 0.465644742284812 |  erot = 3.29851230576445 | epot = -98.7473611679391 | etot = -94.9832041198898
149000  ekin = 0.465814119799272 |  erot = 3.65076334071052 | epot = -99.0997815805923 | etot = -94.9832041200825
150000  ekin = 0.467066930341233 |  erot = 4.01009762210425 | epot = -99.4603686727291 | etot = -94.9832041202836
151000  ekin = 0.46944166485325 |  erot = 4.37330500643622 | epot = -99.8259507917823 | etot = -94.9832041204928
152000  ekin = 0.472935096706182 |  erot = 4.73710432401226 | epot = -100.193243541426 | etot = -94.9832041207079
153000  ekin = 0.477503845277862 |  erot = 5.09817027835984 | epot = -100.558878244565 | etot = -94.9832041209268
154000  ekin = 0.483067613170167 |  erot = 5.4531616395743 | epot = -100.919433373892 | etot = -94.9832041211477
155000  ekin = 0.489514134823114 |  erot = 5.79875094932348 | epot = -101.271469205513 | etot = -94.9832041213667
156000  ekin = 0.496705664108832 |  erot = 6.13165562439234 | epot = -101.611565410084 | etot = -94.9832041215828
157000  ekin = 0.504486704924029 |  erot = 6.4486704327011 | epot = -101.936361259418 | etot = -94.983204121793
158000  ekin = 0.512692532344779 |  erot = 6.74670118037713 | epot = -102.242597834715 | etot = -94.9832041219936
159000  ekin = 0.52115793461083 |  erot = 7.02279931795066 | epot = -102.527161374745 | etot = -94.983204122183
160000  ekin = 0.529725541023146 |  erot = 7.27419703253715 | epot = -102.787126695918 | etot = -94.983204122358
161000  ekin = 0.538253099328843 |  erot = 7.49834225287831 | epot = -103.019799474723 | etot = -94.9832041225156
162000  ekin = 0.546619131431494 |  erot = 7.69293286917667 | epot = -103.222756123262 | etot = -94.9832041226539
163000  ekin = 0.554726522634789 |  erot = 7.85594937234019 | epot = -103.393880017745 | etot = -94.9832041227704
164000  ekin = 0.562503774129801 |  erot = 7.98568505746768 | epot = -103.531392954461 | etot = -94.9832041228637
165000  ekin = 0.569903853158121 |  erot = 8.08077292046636 | epot = -103.633880896557 | etot = -94.9832041229327
166000  ekin = 0.576900789723021 |  erot = 8.14020840920186 | epot = -103.700313321902 | etot = -94.9832041229768
167000  ekin = 0.58348436920113 |  erot = 8.16336735522638 | epot = -103.730055847423 | etot = -94.983204122995
168000  ekin = 0.589653469969055 |  erot = 8.15001812876106 | epot = -103.722875721718 | etot = -94.9832041229875
169000  ekin = 0.595408688534051 |  erot = 8.1003277593876 | epot = -103.678940570876 | etot = -94.9832041229544
170000  ekin = 0.600745009143773 |  erot = 8.01486183131481 | epot = -103.598810963355 | etot = -94.9832041228969
171000  ekin = 0.605645288205322 |  erot = 7.89457774643259 | epot = -103.483427157455 | etot = -94.9832041228168
172000  ekin = 0.610075281652965 |  erot = 7.7408115169574 | epot = -103.334090921325 | etot = -94.9832041227145
173000  ekin = 0.613980845575434 |  erot = 7.55525835572243 | epot = -103.15244332389 | etot = -94.983204122592
174000  ekin = 0.617287796221253 |  erot = 7.33994733779611 | epot = -102.940439256468 | etot = -94.9832041224509
175000  ekin = 0.619904675879583 |  erot = 7.097211141545 | epot = -102.700319939718 | etot = -94.9832041222934
176000  ekin = 0.621728477656769 |  erot = 6.82965126228206 | epot = -102.43458386206 | etot = -94.9832041221214
177000  ekin = 0.622653067772373 |  erot = 6.54009991604255 | epot = -102.145957105751 | etot = -94.9832041219366
178000  ekin = 0.62257977477756 |  erot = 6.23157960814403 | epot = -101.837363504663 | etot = -94.983204121741
179000  ekin = 0.62142934352549 |  erot = 5.90726127340403 | epot = -101.511894738467 | etot = -94.9832041215377
180000  ekin = 0.619154182509066 |  erot = 5.57042243309394 | epot = -101.17278073693 | etot = -94.9832041213271
181000  ekin = 0.615749659463422 |  erot = 5.22440605049502 | epot = -100.82335983107 | etot = -94.9832041211112
182000  ekin = 0.611263079790172 |  erot = 4.87258125244161 | epot = -100.467048453124 | etot = -94.9832041208921
183000  ekin = 0.605799018600945 |  erot = 4.51830655850752 | epot = -100.107309697781 | etot = -94.9832041206723
184000  ekin = 0.599519880538478 |  erot = 4.1648962106134 | epot = -99.7476202116055 | etot = -94.9832041204536
185000  ekin = 0.592640865223329 |  erot = 3.81558997261598 | epot = -99.3914349580782 | etot = -94.9832041202389
186000  ekin = 0.585419141528813 |  erot = 3.47354022931016 | epot = -99.0421634908414 | etot = -94.9832041200024
187000  ekin = 0.578137013867617 |  erot = 3.14255025874168 | epot = -98.7038913922423 | etot = -94.983204119633
188000  ekin = 0.571078697230802 |  erot = 2.82696186256627 | epot = -98.3812446792918 | etot = -94.9832041194948
189000  ekin = 0.564510317399511 |  erot = 2.52907622145644 | epot = -98.0767906582239 | etot = -94.9832041193679
190000  ekin = 0.558660530803237 |  erot = 2.25066960240058 | epot = -97.7925342524586 | etot = -94.9832041192548
191000  ekin = 0.553701017696781 |  erot = 1.99336715133331 | epot = -97.5302722881862 | etot = -94.9832041191561
192000  ekin = 0.549731725284552 |  erot = 1.75871511376303 | epot = -97.2916509581015 | etot = -94.983204119054
193000  ekin = 0.546772915354103 |  erot = 1.54812195397944 | epot = -97.0780989883154 | etot = -94.9832041189819
194000  ekin = 0.54476512617537 |  erot = 1.36269775917257 | epot = -96.8906670042616 | etot = -94.9832041189137
195000  ekin = 0.54357686435207 |  erot = 1.20350058153785 | epot = -96.7302815647705 | etot = -94.9832041188805
196000  ekin = 0.543019012958587 |  erot = 1.07125147054793 | epot = -96.597474602377 | etot = -94.9832041188705
197000  ekin = 0.542864218035617 |  erot = 0.966359478479232 | epot = -96.4924278153832 | etot = -94.9832041188684
198000  ekin = 0.542868659398997 |  erot = 0.889111981011803 | epot = -96.4151847592827 | etot = -94.9832041188719
199000  ekin = 0.54279379779282 |  erot = 0.839673541754788 | epot = -96.3656714584281 | etot = -94.9832041188805
200000  ekin = 0.542426013699465 |  erot = 0.818112888533999 | epot = -96.3437430211258 | etot = -94.9832041188924
201000  ekin = 0.541592473848919 |  erot = 0.824403519897849 | epot = -96.3492001126537 | etot = -94.983204118907
202000  ekin = 0.540172231625773 |  erot = 0.858422964215629 | epot = -96.3817993147649 | etot = -94.9832041189235
203000  ekin = 0.538102214767941 |  erot = 0.919951165369879 | epot = -96.4412574990818 | etot = -94.9832041189439
204000  ekin = 0.535378360673646 |  erot = 1.00865260655822 | epot = -96.5272350862031 | etot = -94.9832041189712
205000  ekin = 0.532052494125116 |  erot = 1.1240534125285 | epot = -96.6393100256587 | etot = -94.9832041190051
206000  ekin = 0.528225549651122 |  erot = 1.26550576773083 | epot = -96.7769354364228 | etot = -94.9832041190408
207000  ekin = 0.524038252738827 |  erot = 1.43224054703821 | epot = -96.9394829188694 | etot = -94.9832041190924
208000  ekin = 0.5196602937078 |  erot = 1.62330157808123 | epot = -97.1261659909469 | etot = -94.9832041191578
209000  ekin = 0.515278466780125 |  erot = 1.83742152170684 | epot = -97.3359041077394 | etot = -94.9832041192524
210000  ekin = 0.511084588883196 |  erot = 2.07309200237578 | epot = -97.5673807106121 | etot = -94.9832041193532
211000  ekin = 0.507263853416192 |  erot = 2.32853629976744 | epot = -97.8190042726611 | etot = -94.9832041194775
212000  ekin = 0.5039844090011 |  erot = 2.60180788484822 | epot = -98.0889964134398 | etot = -94.9832041195905
213000  ekin = 0.501388405546911 |  erot = 2.890971091252 | epot = -98.3755636165125 | etot = -94.9832041197136
214000  ekin = 0.499584946180622 |  erot = 3.19397345720827 | epot = -98.6767625232347 | etot = -94.9832041198458
215000  ekin = 0.498645419408258 |  erot = 3.50861345110207 | epot = -98.9904629905246 | etot = -94.9832041200143
216000  ekin = 0.498601580363052 |  erot = 3.83233820019976 | epot = -99.314143900811 | etot = -94.9832041202482
217000  ekin = 0.499446982533282 |  erot = 4.16192579154356 | epot = -99.6445768946253 | etot = -94.9832041205485
218000  ekin = 0.501143431778913 |  erot = 4.4932498506996 | epot = -99.9775974032677 | etot = -94.9832041207892
219000  ekin = 0.50362678375202 |  erot = 4.8227702530214 | epot = -100.309601157765 | etot = -94.9832041209915
220000  ekin = 0.506811372747302 |  erot = 5.14739631974243 | epot = -100.637411813682 | etot = -94.9832041211921
221000  ekin = 0.510597280046735 |  erot = 5.46407954017575 | epot = -100.957880941611 | etot = -94.9832041213889
222000  ekin = 0.514878415832491 |  erot = 5.76984764996182 | epot = -101.267930187373 | etot = -94.9832041215785
223000  ekin = 0.519550207777488 |  erot = 6.06183785090742 | epot = -101.564592180444 | etot = -94.9832041217587
224000  ekin = 0.524516226929403 |  erot = 6.33732778497912 | epot = -101.845048133836 | etot = -94.9832041219273
225000  ekin = 0.529693273912258 |  erot = 6.59376387069667 | epot = -102.106661266691 | etot = -94.9832041220817
226000  ekin = 0.535014608360219 |  erot = 6.82878641097279 | epot = -102.347005141555 | etot = -94.9832041222217
227000  ekin = 0.540431202188812 |  erot = 7.040251168302 | epot = -102.563886492836 | etot = -94.9832041223455
228000  ekin = 0.545911170252469 |  erot = 7.22624750663137 | epot = -102.755362799336 | etot = -94.9832041224519
229000  ekin = 0.551437687847249 |  erot = 7.38511337101687 | epot = -102.919755181406 | etot = -94.9832041225415
230000  ekin = 0.557005842281213 |  erot = 7.51544772808906 | epot = -103.055657692983 | etot = -94.9832041226128
231000  ekin = 0.562618916648816 |  erot = 7.61612100871176 | epot = -103.161944048026 | etot = -94.9832041226651
232000  ekin = 0.568284587367105 |  erot = 7.68628405585615 | epot = -103.237772765922 | etot = -94.983204122699
233000  ekin = 0.574011434932047 |  erot = 7.72537587173969 | epot = -103.282591429386 | etot = -94.9832041227142
234000  ekin = 0.57980604070012 |  erot = 7.73313015289176 | epot = -103.296140316302 | etot = -94.9832041227105
235000  ekin = 0.585670796181742 |  erot = 7.70958025547043 | epot = -103.27845517434 | etot = -94.983204122688
236000  ekin = 0.591602411546527 |  erot = 7.65506191352098 | epot = -103.229868447714 | etot = -94.9832041226466
237000  ekin = 0.59759100007232 |  erot = 7.57021280788404 | epot = -103.151007930543 | etot = -94.9832041225867
238000  ekin = 0.603619551629913 |  erot = 7.45596800953366 | epot = -103.042791683672 | etot = -94.983204122508
239000  ekin = 0.609663596664642 |  erot = 7.3135504377803 | epot = -102.906418156857 | etot = -94.9832041224125
240000  ekin = 0.615690919935661 |  erot = 7.14445570484448 | epot = -102.743350747082 | etot = -94.9832041223022
241000  ekin = 0.621661236171431 |  erot = 6.95043127315758 | epot = -102.555296631507 | etot = -94.9832041221781
242000  ekin = 0.627525867839132 |  erot = 6.73345028512103 | epot = -102.344180275002 | etot = -94.9832041220419
243000  ekin = 0.633227560717428 |  erot = 6.49568099907215 | epot = -102.112112681686 | etot = -94.983204121896
244000  ekin = 0.638700641301819 |  erot = 6.23945315074976 | epot = -101.861357913795 | etot = -94.9832041217432
245000  ekin = 0.643871769361205 |  erot = 5.96722301259777 | epot = -101.594298903544 | etot = -94.9832041215847
246000  ekin = 0.648661512309433 |  erot = 5.68153887775145 | epot = -101.313404511484 | etot = -94.9832041214231
247000  ekin = 0.652986906287002 |  erot = 5.38500858666198 | epot = -101.021199614209 | etot = -94.9832041212596
248000  ekin = 0.656765061265702 |  erot = 5.0802703657359 | epot = -100.720239548097 | etot = -94.9832041210958
249000  ekin = 0.659917730041162 |  erot = 4.76996771923282 | epot = -100.413089570206 | etot = -94.9832041209323
250000  ekin = 0.662376612147294 |  erot = 4.45672851562766 | epot = -100.102309248544 | etot = -94.9832041207695
251000  ekin = 0.664089020342935 |  erot = 4.14314783017467 | epot = -99.7904409711276 | etot = -94.98320412061
252000  ekin = 0.665023416615826 |  erot = 3.83177364444066 | epot = -99.4800011815089 | etot = -94.9832041204525
253000  ekin = 0.66517424426624 |  erot = 3.52509424031974 | epot = -99.1734726048837 | etot = -94.9832041202977
254000  ekin = 0.664565461049017 |  erot = 3.22552610520123 | epot = -98.8732956863964 | etot = -94.9832041201462
255000  ekin = 0.663252233330686 |  erot = 2.93540138617872 | epot = -98.5818577395082 | etot = -94.9832041199988
256000  ekin = 0.661320394930853 |  erot = 2.65695434674326 | epot = -98.3014788615317 | etot = -94.9832041198575
257000  ekin = 0.658883505800432 |  erot = 2.39230680179918 | epot = -98.0343944273231 | etot = -94.9832041197235
258000  ekin = 0.656077648469928 |  erot = 2.14345303083244 | epot = -97.7827347988994 | etot = -94.983204119597
259000  ekin = 0.653054401157896 |  erot = 1.91224505726567 | epot = -97.5485035779035 | etot = -94.98320411948
260000  ekin = 0.649972720488177 |  erot = 1.70037940018679 | epot = -97.3335562400484 | etot = -94.9832041193734
261000  ekin = 0.646990651908605 |  erot = 1.50938638917655 | epot = -97.139581160364 | etot = -94.9832041192788
262000  ekin = 0.644257758845545 |  erot = 1.34062282375725 | epot = -96.9680847017987 | etot = -94.9832041191959
263000  ekin = 0.641909025642401 |  erot = 1.19526833823617 | epot = -96.8203814830037 | etot = -94.9832041191252
264000  ekin = 0.640060677141961 |  erot = 1.07432529395365 | epot = -96.697590090163 | etot = -94.9832041190674
265000  ekin = 0.638807976581567 |  erot = 0.978621504480818 | epot = -96.6006336000837 | etot = -94.9832041190213
266000  ekin = 0.638224700642822 |  erot = 0.908814707274111 | epot = -96.5302435269039 | etot = -94.9832041189869
267000  ekin = 0.638363723160597 |  erot = 0.865397455998587 | epot = -96.486965298123 | etot = -94.9832041189638
268000  ekin = 0.639258033999164 |  erot = 0.848701100751691 | epot = -96.471163253702 | etot = -94.9832041189511
269000  ekin = 0.640921579451995 |  erot = 0.858897703442166 | epot = -96.4830234018441 | etot = -94.9832041189499
270000  ekin = 0.643349511128816 |  erot = 0.895999098200665 | epot = -96.5225527282901 | etot = -94.9832041189607
271000  ekin = 0.646517706347675 |  erot = 0.959852775100318 | epot = -96.5895746004304 | etot = -94.9832041189824
272000  ekin = 0.650381699279929 |  erot = 1.05013476829658 | epot = -96.6837205865937 | etot = -94.9832041190171
273000  ekin = 0.65487538970633 |  erot = 1.16634022960587 | epot = -96.804419738378 | etot = -94.9832041190658
274000  ekin = 0.6599100290716 |  erot = 1.3077727801124 | epot = -96.9508869283126 | etot = -94.9832041191286
275000  ekin = 0.665374014043316 |  erot = 1.47353401746068 | epot = -97.1221121507109 | etot = -94.9832041192069
276000  ekin = 0.671133954666315 |  erot = 1.66251467909184 | epot = -97.3168527530576 | etot = -94.9832041192995
277000  ekin = 0.677037348318725 |  erot = 1.87338890341675 | epot = -97.533630371142 | etot = -94.9832041194065
278000  ekin = 0.682917006551006 |  erot = 2.10461278399507 | epot = -97.7707339100743 | etot = -94.9832041195282
279000  ekin = 0.688597173484148 |  erot = 2.35442810824818 | epot = -98.0262294013955 | etot = -94.9832041196631
280000  ekin = 0.693901058527934 |  erot = 2.62087153750036 | epot = -98.2979767158384 | etot = -94.9832041198101
281000  ekin = 0.698659308518145 |  erot = 2.90178905990916 | epot = -98.5836524883945 | etot = -94.9832041199672
282000  ekin = 0.702718787108198 |  erot = 3.19485503343055 | epot = -98.880777940671 | etot = -94.9832041201322
283000  ekin = 0.705950918601531 |  erot = 3.49759471619532 | epot = -99.1867497551007 | etot = -94.9832041203039
284000  ekin = 0.70825882440264 |  erot = 3.80740895577241 | epot = -99.4988719006544 | etot = -94.9832041204794
285000  ekin = 0.709582540444452 |  erot = 4.12159968239189 | epot = -99.8143863434934 | etot = -94.9832041206571
286000  ekin = 0.709901758202536 |  erot = 4.43739503781098 | epot = -100.13050091685 | etot = -94.9832041208364
287000  ekin = 0.709235759966423 |  erot = 4.75197333811771 | epot = -100.444413219099 | etot = -94.9832041210153
288000  ekin = 0.707640515563663 |  erot = 5.06248556985184 | epot = -100.753330206608 | etot = -94.983204121193
289000  ekin = 0.705203246432238 |  erot = 5.36607667828934 | epot = -101.05448404609 | etot = -94.983204121368
290000  ekin = 0.702035024302235 |  erot = 5.65990636761826 | epot = -101.345145513461 | etot = -94.98320412154
291000  ekin = 0.698262219163429 |  erot = 5.94117048760599 | epot = -101.622636828478 | etot = -94.9832041217084
292000  ekin = 0.694017728828647 |  erot = 6.20712419754359 | epot = -101.884346048245 | etot = -94.9832041218723
293000  ekin = 0.689432915961638 |  erot = 6.45510796231058 | epot = -102.127745000302 | etot = -94.9832041220295
294000  ekin = 0.684631041279812 |  erot = 6.68257705300978 | epot = -102.350412216467 | etot = -94.9832041221776
295000  ekin = 0.679722732483022 |  erot = 6.88713464920363 | epot = -102.550061504002 | etot = -94.9832041223158
296000  ekin = 0.674803705105261 |  erot = 7.06656796152676 | epot = -102.724575789072 | etot = -94.9832041224401
297000  ekin = 0.669954604569091 |  erot = 7.21888612372558 | epot = -102.872044850843 | etot = -94.9832041225486
298000  ekin = 0.665242523093875 |  erot = 7.34235805455308 | epot = -102.990804700286 | etot = -94.9832041226392
299000  ekin = 0.660723510570955 |  erot = 7.4355481556285 | epot = -103.079475788909 | etot = -94.9832041227093
300000  ekin = 0.65644528212639 |  erot = 7.49734764860024 | epot = -103.136997053484 | etot = -94.9832041227572
301000  ekin = 0.652449337613236 |  erot = 7.52699956932687 | epot = -103.162653029721 | etot = -94.983204122781
302000  ekin = 0.648771865609169 |  erot = 7.52411590689942 | epot = -103.15609189529 | etot = -94.9832041227818
303000  ekin = 0.645443052129645 |  erot = 7.48868599724627 | epot = -103.117333172135 | etot = -94.983204122759
304000  ekin = 0.642484741956206 |  erot = 7.42107600777145 | epot = -103.046764872441 | etot = -94.9832041227128
305000  ekin = 0.639906740063805 |  erot = 7.32201999173758 | epot = -102.945130854446 | etot = -94.9832041226451
306000  ekin = 0.637702351551792 |  erot = 7.19260354802011 | epot = -102.813510022128 | etot = -94.9832041225564
307000  ekin = 0.6358439890135 |  erot = 7.03424151096889 | epot = -102.653289622433 | etot = -94.9832041224504
308000  ekin = 0.634279779244893 |  erot = 6.84865122809968 | epot = -102.466135129674 | etot = -94.983204122329
309000  ekin = 0.632932059827914 |  erot = 6.6378229399619 | epot = -102.253959121983 | etot = -94.9832041221935
310000  ekin = 0.631698460956687 |  erot = 6.40398856283115 | epot = -102.018891145833 | etot = -94.9832041220448
311000  ekin = 0.63045593907673 |  erot = 6.14958985835608 | epot = -101.763249919318 | etot = -94.9832041218854
312000  ekin = 0.629067704101127 |  erot = 5.87724661140005 | epot = -101.48951843722 | etot = -94.9832041217184
313000  ekin = 0.62739254221921 |  erot = 5.5897251325509 | epot = -101.200321796314 | etot = -94.9832041215436
314000  ekin = 0.625295631662691 |  erot = 5.28990714987736 | epot = -100.898406902902 | etot = -94.9832041213617
315000  ekin = 0.622659670395025 |  erot = 4.98075995541823 | epot = -100.586623746924 | etot = -94.9832041211107
316000  ekin = 0.619394472085738 |  erot = 4.66560282712062 | epot = -100.268201420133 | etot = -94.983204120927
317000  ekin = 0.615443754401468 |  erot = 4.34778918878501 | epot = -99.9464370639063 | etot = -94.9832041207198
318000  ekin = 0.610790256599254 |  erot = 4.0307938197466 | epot = -99.6247881968918 | etot = -94.9832041205459
319000  ekin = 0.605458133597745 |  erot = 3.71763381578055 | epot = -99.3062960696071 | etot = -94.9832041202288
320000  ekin = 0.599510640673015 |  erot = 3.41206309210001 | epot = -98.9947778528607 | etot = -94.9832041200877
321000  ekin = 0.593043588089023 |  erot = 3.11707182563752 | epot = -98.6933195336809 | etot = -94.9832041199543
322000  ekin = 0.586182125644233 |  erot = 2.83464266357782 | epot = -98.4040289090474 | etot = -94.9832041198253
323000  ekin = 0.579072086175596 |  erot = 2.56665433353773 | epot = -98.128930539417 | etot = -94.9832041197037
324000  ekin = 0.571869362638035 |  erot = 2.31490336633571 | epot = -97.869976848554 | etot = -94.9832041195803
325000  ekin = 0.564729402688634 |  erot = 2.08116386207494 | epot = -97.6290973842318 | etot = -94.9832041194682
326000  ekin = 0.557797877662513 |  erot = 1.86699978553787 | epot = -97.4080017825677 | etot = -94.9832041193673
327000  ekin = 0.551203035688799 |  erot = 1.67378168043492 | epot = -97.2081888354125 | etot = -94.9832041192888
328000  ekin = 0.545049865921104 |  erot = 1.50262292199405 | epot = -97.030876907141 | etot = -94.9832041192258
329000  ekin = 0.539416411990965 |  erot = 1.35445563070832 | epot = -96.8770761618674 | etot = -94.9832041191681
330000  ekin = 0.534351995065562 |  erot = 1.23011469530744 | epot = -96.7476708095022 | etot = -94.9832041191292
331000  ekin = 0.529877144573248 |  erot = 1.13021719652153 | epot = -96.6432984601956 | etot = -94.9832041191008
332000  ekin = 0.525985017751932 |  erot = 1.05521706472052 | epot = -96.5644062015561 | etot = -94.9832041190837
333000  ekin = 0.522644023674943 |  erot = 1.0054240854669 | epot = -96.5112722282167 | etot = -94.9832041190749
334000  ekin = 0.519801401784618 |  erot = 0.981009770696174 | epot = -96.4840152915603 | etot = -94.9832041190795
335000  ekin = 0.517387532462469 |  erot = 0.981977534612042 | epot = -96.482569186168 | etot = -94.9832041190935
336000  ekin = 0.515320775520322 |  erot = 1.00818584955459 | epot = -96.5067107441915 | etot = -94.9832041191166
337000  ekin = 0.513512637682491 |  erot = 1.05936262834877 | epot = -96.5560793851782 | etot = -94.9832041191469
338000  ekin = 0.511873059469282 |  erot = 1.13511071248797 | epot = -96.6301878911428 | etot = -94.9832041191855
339000  ekin = 0.510315588413279 |  erot = 1.23490634914115 | epot = -96.7284260567957 | etot = -94.9832041192413
340000  ekin = 0.5087621963159 |  erot = 1.35803987330379 | epot = -96.8500061889147 | etot = -94.983204119295
341000  ekin = 0.507147449787853 |  erot = 1.50370858650226 | epot = -96.9940601556441 | etot = -94.983204119354
342000  ekin = 0.505421752037868 |  erot = 1.67102505700642 | epot = -97.1596509284642 | etot = -94.98320411942
343000  ekin = 0.503553525568519 |  erot = 1.85893265685552 | epot = -97.3456903019476 | etot = -94.9832041195235
344000  ekin = 0.501530262654883 |  erot = 2.06607417040072 | epot = -97.5508085526585 | etot = -94.9832041196028
345000  ekin = 0.49935859289463 |  erot = 2.29115714363682 | epot = -97.7737198562237 | etot = -94.9832041196923
346000  ekin = 0.497063239674307 |  erot = 2.53275788449975 | epot = -98.013025243983 | etot = -94.9832041198089
347000  ekin = 0.494684955379672 |  erot = 2.78911569291879 | epot = -98.2670047682226 | etot = -94.9832041199242
348000  ekin = 0.492278400991359 |  erot = 3.05837696027611 | epot = -98.5338594813153 | etot = -94.9832041200478
349000  ekin = 0.489909871896587 |  erot = 3.33857351763408 | epot = -98.8116875096984 | etot = -94.9832041201677
350000  ekin = 0.487655152098168 |  erot = 3.62773154023599 | epot = -99.098590812627 | etot = -94.9832041202928
351000  ekin = 0.485597872798893 |  erot = 3.92379052181731 | epot = -99.3925925150392 | etot = -94.983204120423
352000  ekin = 0.483828438616678 |  erot = 4.22442934422087 | epot = -99.6914619034318 | etot = -94.9832041205943
353000  ekin = 0.482442888369551 |  erot = 4.52679044123725 | epot = -99.9924374504228 | etot = -94.983204120816
354000  ekin = 0.481542723090079 |  erot = 4.82787443418213 | epot = -100.292621278268 | etot = -94.9832041209959
355000  ekin = 0.481235308213092 |  erot = 5.12461595030556 | epot = -100.589055379727 | etot = -94.9832041212082
356000  ekin = 0.48163450405207 |  erot = 5.41375551840396 | epot = -100.878594143945 | etot = -94.9832041214886
357000  ekin = 0.482859993833987 |  erot = 5.69162766143567 | epot = -101.157691776959 | etot = -94.9832041216892
358000  ekin = 0.485034787635983 |  erot = 5.95509502229801 | epot = -101.423333931781 | etot = -94.9832041218471
359000  ekin = 0.488281552163094 |  erot = 6.20154631835129 | epot = -101.673031992508 | etot = -94.9832041219939
360000  ekin = 0.492716593695212 |  erot = 6.42857135241653 | epot = -101.904492068238 | etot = -94.9832041221265
361000  ekin = 0.498441828038663 |  erot = 6.63398856583862 | epot = -102.115634516122 | etot = -94.9832041222449
362000  ekin = 0.50553523138765 |  erot = 6.81586881754979 | epot = -102.304608171285 | etot = -94.9832041223473
363000  ekin = 0.514040484502157 |  erot = 6.97255210392458 | epot = -102.469796710861 | etot = -94.9832041224346
364000  ekin = 0.523956787015357 |  erot = 7.102657626671 | epot = -102.609818536194 | etot = -94.9832041225074
365000  ekin = 0.535229990894758 |  erot = 7.20508819906773 | epot = -102.723522312529 | etot = -94.9832041225663
366000  ekin = 0.547746253092913 |  erot = 7.27903038730592 | epot = -102.80998076301 | etot = -94.983204122611
367000  ekin = 0.561329318597671 |  erot = 7.32395196561865 | epot = -102.868485406857 | etot = -94.9832041226411
368000  ekin = 0.575742312555659 |  erot = 7.33959814681583 | epot = -102.898544582029 | etot = -94.9832041226575
369000  ekin = 0.590694557251127 |  erot = 7.3259876430931 | epot = -102.899886323002 | etot = -94.9832041226581
370000  ekin = 0.605853451159459 |  erot = 7.28340928366693 | epot = -102.87246685747 | etot = -94.9832041226438
371000  ekin = 0.620860928319061 |  erot = 7.2124189839202 | epot = -102.816484034852 | etot = -94.983204122613
372000  ekin = 0.635353474085631 |  erot = 7.1138363295623 | epot = -102.732393926212 | etot = -94.9832041225643
373000  ekin = 0.648984210250408 |  erot = 6.98873950169404 | epot = -102.620927834441 | etot = -94.9832041224966
374000  ekin = 0.661445205998196 |  erot = 6.83845695170788 | epot = -102.483106280116 | etot = -94.9832041224103
375000  ekin = 0.672487996845132 |  erot = 6.66455430476797 | epot = -102.320246423919 | etot = -94.9832041223056
376000  ekin = 0.681940348021406 |  erot = 6.46881530382702 | epot = -102.133959774032 | etot = -94.9832041221833
377000  ekin = 0.689717570931345 |  erot = 6.253216312705 | epot = -101.92613800568 | etot = -94.9832041220441
378000  ekin = 0.695827183898021 |  erot = 6.01989480692258 | epot = -101.698926112712 | etot = -94.9832041218914
379000  ekin = 0.700366356322912 |  erot = 5.77111321983824 | epot = -101.454683697889 | etot = -94.9832041217278
380000  ekin = 0.7035123223013 |  erot = 5.50922028456666 | epot = -101.195936728426 | etot = -94.9832041215577
381000  ekin = 0.705506664665054 |  erot = 5.23661264156069 | epot = -100.92532342761 | etot = -94.9832041213843
382000  ekin = 0.70663501700244 |  erot = 4.95569956662245 | epot = -100.645538704835 | etot = -94.9832041212098
383000  ekin = 0.707204188003242 |  erot = 4.66887337627501 | epot = -100.359281685317 | etot = -94.9832041210389
384000  ekin = 0.707518932142668 |  erot = 4.37848732925009 | epot = -100.069210382266 | etot = -94.9832041208731
385000  ekin = 0.707860535125706 |  erot = 4.08684187481863 | epot = -99.7779065306584 | etot = -94.9832041207141
386000  ekin = 0.708469070322316 |  erot = 3.79617885186107 | epot = -99.4878520427457 | etot = -94.9832041205623
387000  ekin = 0.709530642611601 |  erot = 3.50868213206693 | epot = -99.2014168950971 | etot = -94.9832041204185
388000  ekin = 0.711170252314231 |  erot = 3.22648239340104 | epot = -98.9208567659973 | etot = -94.983204120282
389000  ekin = 0.713450199999485 |  erot = 2.95166314469051 | epot = -98.6483174648423 | etot = -94.9832041201523
390000  ekin = 0.716373314023044 |  erot = 2.68626508799331 | epot = -98.3858425220455 | etot = -94.9832041200292
391000  ekin = 0.719889821889959 |  erot = 2.43228633443338 | epot = -98.135380276235 | etot = -94.9832041199117
392000  ekin = 0.723906466232491 |  erot = 2.19167678126783 | epot = -97.8987873673003 | etot = -94.9832041198
393000  ekin = 0.72829650160826 |  erot = 1.96632596967596 | epot = -97.677826590979 | etot = -94.9832041196948
394000  ekin = 0.732909460633897 |  erot = 1.75804490823079 | epot = -97.4741584884623 | etot = -94.9832041195977
395000  ekin = 0.737579968472559 |  erot = 1.56854330820601 | epot = -97.2893273961869 | etot = -94.9832041195083
396000  ekin = 0.742135315798157 |  erot = 1.39940440667987 | epot = -97.1247438419073 | etot = -94.9832041194293
397000  ekin = 0.746401877816425 |  erot = 1.25205990238539 | epot = -96.981665899562 | etot = -94.9832041193602
398000  ekin = 0.750210721717577 |  erot = 1.12776747094721 | epot = -96.8611823119682 | etot = -94.9832041193034
399000  ekin = 0.753402843808864 |  erot = 1.02759289577536 | epot = -96.764199858843 | etot = -94.9832041192588
400000  ekin = 0.755834424025184 |  erot = 0.952398139385506 | epot = -96.6914366826362 | etot = -94.9832041192255
401000  ekin = 0.757382312429748 |  erot = 0.90283581328167 | epot = -96.6434222449148 | etot = -94.9832041192033
402000  ekin = 0.757949720265221 |  erot = 0.8793496204555 | epot = -96.6205034599129 | etot = -94.9832041191922
403000  ekin = 0.757471833214497 |  erot = 0.882179571299951 | epot = -96.6228555237057 | etot = -94.9832041191913
404000  ekin = 0.755920848649168 |  erot = 0.911370214334537 | epot = -96.6504951821824 | etot = -94.9832041191987
405000  ekin = 0.753309802889552 |  erot = 0.966779845700703 | epot = -96.7032937678049 | etot = -94.9832041192146
406000  ekin = 0.749694525649738 |  erot = 1.0480886947796 | epot = -96.7809873396678 | etot = -94.9832041192385
407000  ekin = 0.745173147604826 |  erot = 1.154804416808 | epot = -96.8831816836838 | etot = -94.983204119271
408000  ekin = 0.739882787338259 |  erot = 1.28626380921165 | epot = -97.0093507158627 | etot = -94.9832041193128
409000  ekin = 0.733993335742879 |  erot = 1.44163042968822 | epot = -97.1588278847953 | etot = -94.9832041193642
410000  ekin = 0.727698592915516 |  erot = 1.61988861862503 | epot = -97.3307913309674 | etot = -94.9832041194269
411000  ekin = 0.721205333735185 |  erot = 1.81983517522141 | epot = -97.5242446284581 | etot = -94.9832041195015
412000  ekin = 0.714721227261443 |  erot = 2.04007061771149 | epot = -97.7379959645636 | etot = -94.9832041195907
413000  ekin = 0.708442666312948 |  erot = 2.27899224452613 | epot = -97.9706390305331 | etot = -94.9832041196941
414000  ekin = 0.702543628738745 |  erot = 2.53479125486489 | epot = -98.2205390034157 | etot = -94.983204119812
415000  ekin = 0.697166592956258 |  erot = 2.80545587208777 | epot = -98.4858265849893 | etot = -94.9832041199453
416000  ekin = 0.692416282595583 |  erot = 3.08878179511926 | epot = -98.7644021978076 | etot = -94.9832041200927
417000  ekin = 0.688356655808246 |  erot = 3.38239045168866 | epot = -99.0539512277496 | etot = -94.9832041202527
418000  ekin = 0.685011156191404 |  erot = 3.6837546162023 | epot = -99.3519698928153 | etot = -94.9832041204216
419000  ekin = 0.682365849035409 |  erot = 3.99023006549159 | epot = -99.6558000351249 | etot = -94.9832041205979
420000  ekin = 0.680374751819774 |  erot = 4.29909125183323 | epot = -99.9626701244325 | etot = -94.9832041207795
421000  ekin = 0.678966477228316 |  erot = 4.60756857135858 | epot = -100.26973916955 | etot = -94.9832041209632
422000  ekin = 0.678051266174789 |  erot = 4.91288476032006 | epot = -100.574140147641 | etot = -94.9832041211459
423000  ekin = 0.677527596504735 |  erot = 5.21228826741978 | epot = -100.87301998525 | etot = -94.9832041213256
424000  ekin = 0.677287785214821 |  erot = 5.50308205750083 | epot = -101.163573964217 | etot = -94.983204121501
425000  ekin = 0.677222292941667 |  erot = 5.7826472105293 | epot = -101.443073625141 | etot = -94.9832041216701
426000  ekin = 0.67722277347979 |  erot = 6.04846144833026 | epot = -101.708888343643 | etot = -94.9832041218326
427000  ekin = 0.677184169552969 |  erot = 6.29811360533267 | epot = -101.958501896872 | etot = -94.9832041219865
428000  ekin = 0.677006325238563 |  erot = 6.52931567882501 | epot = -102.189526126195 | etot = -94.9832041221318
429000  ekin = 0.676595636498293 |  erot = 6.73991435600185 | epot = -102.399714114767 | etot = -94.9832041222673
430000  ekin = 0.675867188700022 |  erot = 6.92790385296481 | epot = -102.586975164057 | etot = -94.9832041223918
431000  ekin = 0.674747650830852 |  erot = 7.09144145331715 | epot = -102.749393226651 | etot = -94.9832041225033
432000  ekin = 0.673178898794811 |  erot = 7.22886664204905 | epot = -102.885249663445 | etot = -94.9832041226013
433000  ekin = 0.671122158853968 |  erot = 7.33872384230581 | epot = -102.993050123842 | etot = -94.9832041226827
434000  ekin = 0.668562182214454 |  erot = 7.41978793994073 | epot = -103.071554244901 | etot = -94.9832041227457
435000  ekin = 0.665510842827411 |  erot = 7.47109114488782 | epot = -103.119806110504 | etot = -94.9832041227885
436000  ekin = 0.662009518173001 |  erot = 7.49194925843578 | epot = -103.137162899418 | etot = -94.9832041228095
437000  ekin = 0.658129700259612 |  erot = 7.48198518041035 | epot = -103.123319003478 | etot = -94.983204122808
438000  ekin = 0.653971466955888 |  erot = 7.44114764843022 | epot = -103.078323238169 | etot = -94.9832041227826
439000  ekin = 0.649659705948461 |  erot = 7.36972350277908 | epot = -103.002587331462 | etot = -94.9832041227345
440000  ekin = 0.645338268554776 |  erot = 7.26834232586876 | epot = -102.896884717087 | etot = -94.9832041226636
441000  ekin = 0.641162496721343 |  erot = 7.13797295581457 | epot = -102.762339575107 | etot = -94.9832041225709
442000  ekin = 0.637290770567026 |  erot = 6.9799120117153 | epot = -102.600406904741 | etot = -94.9832041224588
443000  ekin = 0.63387583394752 |  erot = 6.79576511861123 | epot = -102.412845074888 | etot = -94.9832041223294
444000  ekin = 0.631056658905984 |  erot = 6.58742191833602 | epot = -102.201682699427 | etot = -94.9832041221852
445000  ekin = 0.628951513441861 |  erot = 6.35702617314565 | epot = -101.969181808616 | etot = -94.9832041220286
446000  ekin = 0.627652725077079 |  erot = 6.10694232070103 | epot = -101.717799167639 | etot = -94.9832041218613
447000  ekin = 0.627223421802761 |  erot = 5.83971977259355 | epot = -101.450147316083 | etot = -94.9832041216868
448000  ekin = 0.627696314858339 |  erot = 5.5580780664567 | epot = -101.168978502794 | etot = -94.9832041214793
449000  ekin = 0.629074441223702 |  erot = 5.26509615080029 | epot = -100.877374713254 | etot = -94.9832041212301
450000  ekin = 0.631332684105109 |  erot = 4.96411718486472 | epot = -100.57865399003 | etot = -94.9832041210602
451000  ekin = 0.634421225381244 |  erot = 4.65799087781964 | epot = -100.275616224092 | etot = -94.9832041208907
452000  ekin = 0.638271863887322 |  erot = 4.34951953592974 | epot = -99.9709955204615 | etot = -94.9832041206444
453000  ekin = 0.642803333631773 |  erot = 4.04193623757062 | epot = -99.667943691691 | etot = -94.9832041204886
454000  ekin = 0.647926644602305 |  erot = 3.73790604278924 | epot = -99.3690368077213 | etot = -94.9832041203297
455000  ekin = 0.653550888088335 |  erot = 3.44008290557616 | epot = -99.0768379137895 | etot = -94.9832041201251
456000  ekin = 0.659588866130423 |  erot = 3.15135096806338 | epot = -98.7941439541393 | etot = -94.9832041199455
457000  ekin = 0.665961818529289 |  erot = 2.87470915706489 | epot = -98.5238750953739 | etot = -94.9832041197797
458000  ekin = 0.672602948723656 |  erot = 2.61237926714457 | epot = -98.2681863355553 | etot = -94.9832041196871
459000  ekin = 0.679459332649816 |  erot = 2.36589727441128 | epot = -98.0285607266605 | etot = -94.9832041195994
460000  ekin = 0.686492693392028 |  erot = 2.13667545785494 | epot = -97.806372270723 | etot = -94.983204119476
461000  ekin = 0.693678882724967 |  erot = 1.9262179922074 | epot = -97.6031009943389 | etot = -94.9832041194066
462000  ekin = 0.701005987756367 |  erot = 1.73580830918045 | epot = -97.4200184162814 | etot = -94.9832041193446
463000  ekin = 0.708471269484407 |  erot = 1.56646035576357 | epot = -97.2581357445413 | etot = -94.9832041192933
464000  ekin = 0.716077211976239 |  erot = 1.41901672668841 | epot = -97.1182980578912 | etot = -94.9832041192265
465000  ekin = 0.723826841764541 |  erot = 1.29427307920546 | epot = -97.0013040401657 | etot = -94.9832041191957
466000  ekin = 0.73171936591656 |  erot = 1.19279011409178 | epot = -96.9077135991822 | etot = -94.9832041191738
467000  ekin = 0.739746199976682 |  erot = 1.11498196296149 | epot = -96.8379322821007 | etot = -94.9832041191625
468000  ekin = 0.747887496191139 |  erot = 1.06104252075882 | epot = -96.7921341361099 | etot = -94.9832041191599
469000  ekin = 0.756109931492674 |  erot = 1.0310434324452 | epot = -96.7703574831039 | etot = -94.983204119166
470000  ekin = 0.764366053683261 |  erot = 1.02493448516628 | epot = -96.7725046580297 | etot = -94.9832041191802
471000  ekin = 0.772595289718453 |  erot = 1.04258245709309 | epot = -96.7983818660175 | etot = -94.9832041192059
472000  ekin = 0.780726688441228 |  erot = 1.083691503798 | epot = -96.8476223114773 | etot = -94.9832041192381
473000  ekin = 0.788683413688266 |  erot = 1.14782370016845 | epot = -96.9197112331338 | etot = -94.9832041192771
474000  ekin = 0.79638814182945 |  erot = 1.23443589750309 | epot = -97.0140281586535 | etot = -94.983204119321
475000  ekin = 0.803768986662736 |  erot = 1.34289968839321 | epot = -97.1298727944388 | etot = -94.9832041193828
476000  ekin = 0.810765384829359 |  erot = 1.47242979299518 | epot = -97.2663992972627 | etot = -94.9832041194382
477000  ekin = 0.817333303647853 |  erot = 1.62216909400373 | epot = -97.4227065171474 | etot = -94.9832041194959
478000  ekin = 0.823449095170097 |  erot = 1.79122500243759 | epot = -97.5978782171712 | etot = -94.9832041195635
479000  ekin = 0.829111427256712 |  erot = 1.9785022648407 | epot = -97.7908178117292 | etot = -94.9832041196317
480000  ekin = 0.834340725588302 |  erot = 2.18264412242697 | epot = -98.0001889677702 | etot = -94.983204119755
481000  ekin = 0.839175979815541 |  erot = 2.4022031710444 | epot = -98.2245832706949 | etot = -94.983204119835
482000  ekin = 0.84367139743698 |  erot = 2.63586714278575 | epot = -98.4627426601479 | etot = -94.9832041199251
483000  ekin = 0.847891184773681 |  erot = 2.88208540265477 | epot = -98.7131807074538 | etot = -94.9832041200253
484000  ekin = 0.851903172531126 |  erot = 3.13908150464328 | epot = -98.9741887973073 | etot = -94.9832041201329
485000  ekin = 0.855771539412362 |  erot = 3.40495919083116 | epot = -99.2439348505154 | etot = -94.9832041202719
486000  ekin = 0.859550272630567 |  erot = 3.67770551039678 | epot = -99.5204599034185 | etot = -94.9832041203912
487000  ekin = 0.863278115744556 |  erot = 3.95526946719412 | epot = -99.8017517034997 | etot = -94.9832041205611
488000  ekin = 0.866975131927332 |  erot = 4.23535434753606 | epot = -100.085533600194 | etot = -94.9832041207305
489000  ekin = 0.870641740064176 |  erot = 4.51553363052657 | epot = -100.369379491486 | etot = -94.9832041208953
490000  ekin = 0.874260210927725 |  erot = 4.79339174753739 | epot = -100.650856079553 | etot = -94.983204121088
491000  ekin = 0.877798081074919 |  erot = 5.06599947003382 | epot = -100.92700167244 | etot = -94.9832041213315
492000  ekin = 0.881211900626512 |  erot = 5.33047066286781 | epot = -101.194886685028 | etot = -94.9832041215341
493000  ekin = 0.884455718091452 |  erot = 5.58416482967063 | epot = -101.451824669443 | etot = -94.9832041216804
494000  ekin = 0.887489060822309 |  erot = 5.82474103125666 | epot = -101.695434213893 | etot = -94.9832041218142
495000  ekin = 0.890283641614742 |  erot = 6.05009693040165 | epot = -101.923584694114 | etot = -94.9832041220981
496000  ekin = 0.892828036488254 |  erot = 6.25727188471129 | epot = -102.133304043417 | etot = -94.983204122217
497000  ekin = 0.895129985345032 |  erot = 6.44401965106797 | epot = -102.322353758731 | etot = -94.9832041223182
498000  ekin = 0.897215818710885 |  erot = 6.60875710816393 | epot = -102.489177049277 | etot = -94.9832041224017
499000  ekin = 0.899126738291924 |  erot = 6.75017094367346 | epot = -102.632501804433 | etot = -94.9832041224677
500000  ekin = 0.900912506501508 |  erot = 6.86721487632539 | epot = -102.751331505343 | etot = -94.9832041225165
501000  ekin = 0.90262325968069 |  erot = 6.95909945547196 | epot = -102.844926837703 | etot = -94.9832041225503
502000  ekin = 0.904300527511756 |  erot = 7.02527696228322 | epot = -102.912781612364 | etot = -94.9832041225695
503000  ekin = 0.905968727308354 |  erot = 7.06542415651515 | epot = -102.954597006401 | etot = -94.9832041225776
504000  ekin = 0.907628432590334 |  erot = 7.07942579222996 | epot = -102.970258347395 | etot = -94.9832041225746
505000  ekin = 0.909252547738882 |  erot = 7.06736158253547 | epot = -102.959818252835 | etot = -94.983204122561
506000  ekin = 0.910786214106068 |  erot = 7.02949839417626 | epot = -102.923488730819 | etot = -94.9832041225372
507000  ekin = 0.912150789123803 |  erot = 6.96628840060267 | epot = -102.861643312229 | etot = -94.9832041225022
508000  ekin = 0.913251680853874 |  erot = 6.87837289940802 | epot = -102.774828702717 | etot = -94.9832041224546
509000  ekin = 0.913989257336055 |  erot = 6.7665901295307 | epot = -102.66378350926 | etot = -94.9832041223932
510000  ekin = 0.914271541391849 |  erot = 6.63198452010616 | epot = -102.529460183815 | etot = -94.9832041223165
511000  ekin = 0.914027052369443 |  erot = 6.47581406739442 | epot = -102.373045241987 | etot = -94.9832041222232
512000  ekin = 0.913216016705602 |  erot = 6.29955245738886 | epot = -102.195972596209 | etot = -94.9832041221149
513000  ekin = 0.911838280182865 |  erot = 6.10488298246787 | epot = -101.999925384641 | etot = -94.9832041219906
514000  ekin = 0.909936634591856 |  erot = 5.89368229759938 | epot = -101.786823054044 | etot = -94.983204121853
515000  ekin = 0.907594859879455 |  erot = 5.66799345402521 | epot = -101.55879243561 | etot = -94.9832041217054
516000  ekin = 0.904930522160197 |  erot = 5.42998932097914 | epot = -101.31812396469 | etot = -94.9832041215509
517000  ekin = 0.90208332180981 |  erot = 5.18192899993143 | epot = -101.067216443135 | etot = -94.9832041213938
518000  ekin = 0.899200446004325 |  erot = 4.92611098087137 | epot = -100.808515548112 | etot = -94.9832041212361
519000  ekin = 0.896420863487844 |  erot = 4.66482757062132 | epot = -100.544452555194 | etot = -94.9832041210844
520000  ekin = 0.893860665899761 |  erot = 4.40032495416537 | epot = -100.277389741005 | etot = -94.9832041209395
521000  ekin = 0.891601426187684 |  erot = 4.13477251393687 | epot = -100.009578060929 | etot = -94.9832041208041
522000  ekin = 0.88968311536229 |  erot = 3.87024368195163 | epot = -99.7431309179913 | etot = -94.9832041206774
523000  ekin = 0.888102459925362 |  erot = 3.60870889135826 | epot = -99.4800154718435 | etot = -94.9832041205599
524000  ekin = 0.886816843755907 |  erot = 3.35203941263869 | epot = -99.2220603768452 | etot = -94.9832041204506
525000  ekin = 0.885753077935663 |  erot = 3.10201929174085 | epot = -98.9709764900235 | etot = -94.983204120347
526000  ekin = 0.884819702399957 |  erot = 2.86036150225589 | epot = -98.7283853249028 | etot = -94.983204120247
527000  ekin = 0.883921039861579 |  erot = 2.62872395651311 | epot = -98.4958491165242 | etot = -94.9832041201495
528000  ekin = 0.882971057367667 |  erot = 2.40872125967132 | epot = -98.2748964370926 | etot = -94.9832041200536
529000  ekin = 0.881905219672708 |  erot = 2.20192898845242 | epot = -98.0670383280835 | etot = -94.9832041199584
530000  ekin = 0.880688907751859 |  erot = 2.00987867588104 | epot = -97.8737717034984 | etot = -94.9832041198655
531000  ekin = 0.87932154975777 |  erot = 1.83404334407172 | epot = -97.696569013604 | etot = -94.9832041197745
532000  ekin = 0.87783626776825 |  erot = 1.6758150652646 | epot = -97.5368554527223 | etot = -94.9832041196895
533000  ekin = 0.876295472337117 |  erot = 1.53647737347791 | epot = -97.3959769654272 | etot = -94.9832041196122
534000  ekin = 0.874783343184439 |  erot = 1.41717618302326 | epot = -97.2751636457518 | etot = -94.9832041195441
535000  ekin = 0.873396454113917 |  erot = 1.31889308195803 | epot = -97.1754936555596 | etot = -94.9832041194877
536000  ekin = 0.87223390752667 |  erot = 1.24242445758071 | epot = -97.0978624845515 | etot = -94.9832041194442
537000  ekin = 0.871388249374954 |  erot = 1.18836897923429 | epot = -97.0429613480232 | etot = -94.9832041194139
538000  ekin = 0.870938177588188 |  erot = 1.15712468604727 | epot = -97.0112669830332 | etot = -94.9832041193977
539000  ekin = 0.87094369066405 |  erot = 1.14889551362117 | epot = -97.0030433236791 | etot = -94.9832041193938
540000  ekin = 0.871443908575873 |  erot = 1.16370575194934 | epot = -97.0183537799263 | etot = -94.9832041194011
541000  ekin = 0.87245739371119 |  erot = 1.20141983521761 | epot = -97.0570813483477 | etot = -94.9832041194189
542000  ekin = 0.873984457041826 |  erot = 1.26176415452108 | epot = -97.118952731008 | etot = -94.9832041194451
543000  ekin = 0.87601069657998 |  erot = 1.34434733521444 | epot = -97.2035621512727 | etot = -94.9832041194783
544000  ekin = 0.878510911377801 |  erot = 1.44867565437951 | epot = -97.3103906852761 | etot = -94.9832041195188
545000  ekin = 0.881452578262883 |  erot = 1.57416095872428 | epot = -97.4388176565516 | etot = -94.9832041195645
546000  ekin = 0.884798262616181 |  erot = 1.72011949503972 | epot = -97.5881218772737 | etot = -94.9832041196178
547000  ekin = 0.888506628006042 |  erot = 1.88576135446517 | epot = -97.7574721021506 | etot = -94.9832041196794
548000  ekin = 0.892532060592933 |  erot = 2.07017159576321 | epot = -97.9459077761065 | etot = -94.9832041197504
549000  ekin = 0.896823268046464 |  erot = 2.27228537615769 | epot = -98.1523127640373 | etot = -94.9832041198331
550000  ekin = 0.90132148392524 |  erot = 2.49086041741846 | epot = -98.3753860212731 | etot = -94.9832041199294
551000  ekin = 0.905959055122287 |  erot = 2.7244507421778 | epot = -98.6136139173415 | etot = -94.9832041200414
552000  ekin = 0.910659184413516 |  erot = 2.97138575673091 | epot = -98.8652490613128 | etot = -94.9832041201683
553000  ekin = 0.915337443508618 |  erot = 3.22975841733581 | epot = -99.1282999811557 | etot = -94.9832041203113
554000  ekin = 0.919905391509795 |  erot = 3.49742543784451 | epot = -99.400534949822 | etot = -94.9832041204677
555000  ekin = 0.924276274584275 |  erot = 3.77202136149919 | epot = -99.6795017567201 | etot = -94.9832041206367
556000  ekin = 0.928372398502075 |  erot = 4.050986944455 | epot = -99.9625634637713 | etot = -94.9832041208142
557000  ekin = 0.932133410340038 |  erot = 4.33161082141395 | epot = -100.246948352751 | etot = -94.9832041209972
558000  ekin = 0.935524448605443 |  erot = 4.61108200070392 | epot = -100.52981057049 | etot = -94.9832041211806
559000  ekin = 0.938542967422241 |  erot = 4.88654953913695 | epot = -100.808296627919 | etot = -94.9832041213595
560000  ekin = 0.941223042424078 |  erot = 5.15518493960651 | epot = -101.079612103563 | etot = -94.9832041215322
561000  ekin = 0.943636096762338 |  erot = 5.41424242760856 | epot = -101.341082646066 | etot = -94.9832041216948
562000  ekin = 0.945887434550901 |  erot = 5.66111279966393 | epot = -101.590204356058 | etot = -94.9832041218436
563000  ekin = 0.948108386624323 |  erot = 5.89336717484428 | epot = -101.824679683447 | etot = -94.9832041219785
564000  ekin = 0.950444471036275 |  erot = 6.10878854026262 | epot = -102.042437133397 | etot = -94.9832041220984
565000  ekin = 0.953040574838713 |  erot = 6.30539055673604 | epot = -102.241635253779 | etot = -94.9832041222045
566000  ekin = 0.956024664609469 |  erot = 6.48142471092004 | epot = -102.420653497828 | etot = -94.9832041222983
567000  ekin = 0.959491831606306 |  erot = 6.6353784005156 | epot = -102.578074354503 | etot = -94.9832041223812
568000  ekin = 0.96349055646059 |  erot = 6.76596707911705 | epot = -102.712661758031 | etot = -94.9832041224536
569000  ekin = 0.968012861166003 |  erot = 6.87212420087945 | epot = -102.823341184561 | etot = -94.983204122516
570000  ekin = 0.972989581143018 |  erot = 6.95299217914885 | epot = -102.909185882861 | etot = -94.9832041225695
571000  ekin = 0.978291374126767 |  erot = 7.00791673947683 | epot = -102.969412236216 | etot = -94.9832041226123
572000  ekin = 0.983735389875301 |  erot = 7.03644588001157 | epot = -103.003385392531 | etot = -94.9832041226442
573000  ekin = 0.989096863473289 |  erot = 7.03833342652334 | epot = -103.010634412661 | etot = -94.9832041226647
574000  ekin = 0.99412434034881 |  erot = 7.01354601564995 | epot = -102.99087447867 | etot = -94.9832041226711
575000  ekin = 0.998556847589126 |  erot = 6.96227130003791 | epot = -102.944032270289 | etot = -94.9832041226623
576000  ekin = 1.00214131296048 |  erot = 6.88492553566493 | epot = -102.870270971262 | etot = -94.983204122637
577000  ekin = 1.00464851899551 |  erot = 6.78215810159799 | epot = -102.770010743187 | etot = -94.9832041225937
578000  ekin = 1.00588625177725 |  erot = 6.65485157277142 | epot = -102.643941947081 | etot = -94.9832041225328
579000  ekin = 1.00570869828512 |  erot = 6.50411643054795 | epot = -102.493029251287 | etot = -94.9832041224543
580000  ekin = 1.00402167432376 |  erot = 6.33128065886729 | epot = -102.318506455551 | etot = -94.9832041223597
581000  ekin = 1.00078370950689 |  erot = 6.13787452664208 | epot = -102.121862358398 | etot = -94.983204122249
582000  ekin = 0.996003489267314 |  erot = 5.92561292705745 | epot = -101.904820538422 | etot = -94.9832041220971
583000  ekin = 0.989734474223819 |  erot = 5.69651480919953 | epot = -101.66945340539 | etot = -94.9832041219667
584000  ekin = 0.982067523353209 |  erot = 5.45268270495439 | epot = -101.417954350134 | etot = -94.9832041218261
585000  ekin = 0.973122154977952 |  erot = 5.19619330216972 | epot = -101.152519578825 | etot = -94.9832041216773
586000  ekin = 0.963037818881242 |  erot = 4.92923819819107 | epot = -100.875480138594 | etot = -94.9832041215212
587000  ekin = 0.951965837671133 |  erot = 4.65410992160954 | epot = -100.589279880639 | etot = -94.9832041213583
588000  ekin = 0.940062419911812 |  erot = 4.37347886416123 | epot = -100.296745405188 | etot = -94.9832041211146
589000  ekin = 0.927482943221615 |  erot = 4.09011866342124 | epot = -100.000805727574 | etot = -94.9832041209307
590000  ekin = 0.914378565239665 |  erot = 3.80664403794795 | epot = -99.7042267238892 | etot = -94.9832041207016
591000  ekin = 0.900894828424185 |  erot = 3.5261231896423 | epot = -99.4102221386136 | etot = -94.9832041205471
592000  ekin = 0.887171481715571 |  erot = 3.25177156962441 | epot = -99.1221471717526 | etot = -94.9832041204126
593000  ekin = 0.873341347673984 |  erot = 2.98578951647812 | epot = -98.8423349843653 | etot = -94.9832041202132
594000  ekin = 0.859530230404327 |  erot = 2.73047515838753 | epot = -98.5732095088839 | etot = -94.983204120092
595000  ekin = 0.845858750826303 |  erot = 2.4878268037517 | epot = -98.3168896745332 | etot = -94.9832041199552
596000  ekin = 0.832443960713488 |  erot = 2.26015894633895 | epot = -98.0758070268147 | etot = -94.9832041197623
597000  ekin = 0.819398484059979 |  erot = 2.04957401491282 | epot = -97.8521766186303 | etot = -94.9832041196575
598000  ekin = 0.806830128871822 |  erot = 1.85745688935412 | epot = -97.6474911378117 | etot = -94.9832041195858
599000  ekin = 0.794840603993267 |  erot = 1.684994003653 | epot = -97.4630387270647 | etot = -94.9832041194184
600000  ekin = 0.783522401443503 |  erot = 1.53367876846917 | epot = -97.300405289296 | etot = -94.9832041193833
601000  ekin = 0.772956655457071 |  erot = 1.40420137102288 | epot = -97.1603621458365 | etot = -94.9832041193566
602000  ekin = 0.763211629889922 |  erot = 1.2969058544364 | epot = -97.043321603664 | etot = -94.9832041193377
603000  ekin = 0.754339954635078 |  erot = 1.21198896755623 | epot = -96.9495330415234 | etot = -94.9832041193321
604000  ekin = 0.746376048632792 |  erot = 1.14949823744121 | epot = -96.8790784054072 | etot = -94.9832041193332
605000  ekin = 0.739334384723322 |  erot = 1.10936302985163 | epot = -96.8319015339223 | etot = -94.9832041193474
606000  ekin = 0.733208852175414 |  erot = 1.09135864728093 | epot = -96.8077716188266 | etot = -94.9832041193702
607000  ekin = 0.727973481354596 |  erot = 1.09514806178409 | epot = -96.8063256625385 | etot = -94.9832041193998
608000  ekin = 0.72358463176046 |  erot = 1.12030192868884 | epot = -96.8270906798841 | etot = -94.9832041194348
609000  ekin = 0.719984596515401 |  erot = 1.16631561426489 | epot = -96.8695043302544 | etot = -94.9832041194741
610000  ekin = 0.717106205434563 |  erot = 1.23251042746539 | epot = -96.9328207524345 | etot = -94.9832041195345
611000  ekin = 0.714877328460798 |  erot = 1.31804683278934 | epot = -97.0161282808333 | etot = -94.9832041195832
612000  ekin = 0.713226891744146 |  erot = 1.42221936040976 | epot = -97.1186503717911 | etot = -94.9832041196372
613000  ekin = 0.71209091397427 |  erot = 1.54419386421546 | epot = -97.239488897905 | etot = -94.9832041197153
614000  ekin = 0.711417417130822 |  erot = 1.68292998867151 | epot = -97.3775515255761 | etot = -94.9832041197738
615000  ekin = 0.711170743553484 |  erot = 1.83746903909303 | epot = -97.5318439024776 | etot = -94.9832041198311
616000  ekin = 0.711334520645108 |  erot = 2.00693291095984 | epot = -97.7014715514917 | etot = -94.9832041198868
617000  ekin = 0.71191291789882 |  erot = 2.19045176331131 | epot = -97.8855688011512 | etot = -94.983204119941
618000  ekin = 0.712930154651331 |  erot = 2.38716072375693 | epot = -98.0832949984029 | etot = -94.9832041199946
619000  ekin = 0.714428271569419 |  erot = 2.59619523184899 | epot = -98.293827623466 | etot = -94.9832041200475
620000  ekin = 0.71646330701003 |  erot = 2.81666739611282 | epot = -98.5163348232504 | etot = -94.9832041201276
621000  ekin = 0.719100370050084 |  erot = 3.04747549494791 | epot = -98.7497799851851 | etot = -94.9832041201871
622000  ekin = 0.722407593223842 |  erot = 3.28758845044412 | epot = -98.9932001639172 | etot = -94.9832041202492
623000  ekin = 0.726448825011612 |  erot = 3.53600475890695 | epot = -99.2456577042316 | etot = -94.983204120313
624000  ekin = 0.731276266974384 |  erot = 3.79126460733618 | epot = -99.5057449948289 | etot = -94.9832041205183
625000  ekin = 0.736922904154468 |  erot = 4.05105064038028 | epot = -99.7711776652255 | etot = -94.9832041206908
626000  ekin = 0.743394143194927 |  erot = 4.3131325501703 | epot = -100.039730814209 | etot = -94.9832041208436
627000  ekin = 0.750661689947757 |  erot = 4.57548808353263 | epot = -100.309353894461 | etot = -94.9832041209807
628000  ekin = 0.75865852069786 |  erot = 4.83552904997829 | epot = -100.577391691876 | etot = -94.9832041211996
629000  ekin = 0.767275529393516 |  erot = 5.09025411398127 | epot = -100.840733764791 | etot = -94.9832041214166
630000  ekin = 0.776361031791318 |  erot = 5.33700039446042 | epot = -101.096565547878 | etot = -94.9832041216267
631000  ekin = 0.78572620700122 |  erot = 5.57285106039483 | epot = -101.341781389173 | etot = -94.9832041217766
632000  ekin = 0.79515239255363 |  erot = 5.79556470728479 | epot = -101.573921221759 | etot = -94.9832041219206
633000  ekin = 0.804398856571299 |  erot = 6.00316085857975 | epot = -101.790763837207 | etot = -94.9832041220555
634000  ekin = 0.813214477903009 |  erot = 6.19381098792563 | epot = -101.990229588008 | etot = -94.9832041221794
635000  ekin = 0.821351538701198 |  erot = 6.36585617217479 | epot = -102.170411833166 | etot = -94.9832041222901
636000  ekin = 0.828580475507189 |  erot = 6.51782141432948 | epot = -102.329606012223 | etot = -94.9832041223859
637000  ekin = 0.834704249818671 |  erot = 6.64842624746769 | epot = -102.466334619752 | etot = -94.9832041224658
638000  ekin = 0.839570811727457 |  erot = 6.75659137392792 | epot = -102.579366308184 | etot = -94.9832041225283
639000  ekin = 0.843082222976777 |  erot = 6.84144079210901 | epot = -102.66772713766 | etot = -94.9832041225745
640000  ekin = 0.845199206600347 |  erot = 6.90229967722346 | epot = -102.730703006427 | etot = -94.9832041226036
641000  ekin = 0.845940401941806 |  erot = 6.9386881301654 | epot = -102.767832654725 | etot = -94.9832041226173
642000  ekin = 0.845376330460019 |  erot = 6.9503120862584 | epot = -102.778892539335 | etot = -94.9832041226161
643000  ekin = 0.843618686086098 |  erot = 6.93705250403187 | epot = -102.763875312721 | etot = -94.9832041226027
644000  ekin = 0.840806341860506 |  erot = 6.89895483757187 | epot = -102.722965302011 | etot = -94.9832041225787
645000  ekin = 0.837089918178931 |  erot = 6.83622069896352 | epot = -102.656514739687 | etot = -94.9832041225449
646000  ekin = 0.83261700934947 |  erot = 6.74920397820693 | epot = -102.565025110059 | etot = -94.9832041225023
647000  ekin = 0.827519963379316 |  erot = 6.6384125012232 | epot = -102.449136587053 | etot = -94.9832041224508
648000  ekin = 0.821907714666032 |  erot = 6.50451573121894 | epot = -102.309627568275 | etot = -94.9832041223896
649000  ekin = 0.815862498397983 |  erot = 6.34835788483211 | epot = -102.147424505549 | etot = -94.9832041223185
650000  ekin = 0.809441497229273 |  erot = 6.17097471268911 | epot = -101.963620332153 | etot = -94.983204122235
651000  ekin = 0.802682708631578 |  erot = 5.97361123984708 | epot = -101.759498070617 | etot = -94.9832041221384
652000  ekin = 0.795613694039326 |  erot = 5.75773713749702 | epot = -101.536554953563 | etot = -94.9832041220262
653000  ekin = 0.788261471942257 |  erot = 5.52505625988244 | epot = -101.296521853724 | etot = -94.9832041218988
[...]
838000  ekin = 0.766718619901537 |  erot = 5.87806269821882 | epot = -101.627985440295 | etot = -94.9832041221746
839000  ekin = 0.767284781751807 |  erot = 6.06300677016687 | epot = -101.813495674192 | etot = -94.9832041222729
840000  ekin = 0.769453491779631 |  erot = 6.22748850278218 | epot = -101.980146116923 | etot = -94.9832041223613
841000  ekin = 0.773175716043339 |  erot = 6.3702391622922 | epot = -102.126619000775 | etot = -94.9832041224396
842000  ekin = 0.778347007200672 |  erot = 6.49019881244745 | epot = -102.251749942156 | etot = -94.9832041225081
843000  ekin = 0.784820003451064 |  erot = 6.58651586541845 | epot = -102.354539991435 | etot = -94.9832041225653
844000  ekin = 0.792418654042831 |  erot = 6.65854400986393 | epot = -102.434166786518 | etot = -94.9832041226108
845000  ekin = 0.800952667639847 |  erot = 6.70583732070569 | epot = -102.489994110989 | etot = -94.9832041226433
846000  ekin = 0.810230762158447 |  erot = 6.72814472538198 | epot = -102.521579610202 | etot = -94.9832041226617
847000  ekin = 0.820071469576854 |  erot = 6.7254050530786 | epot = -102.528680645323 | etot = -94.9832041226673
848000  ekin = 0.830310571463941 |  erot = 6.69774329478412 | epot = -102.511257988907 | etot = -94.9832041226588
849000  ekin = 0.840804800578448 |  erot = 6.64546868552171 | epot = -102.469477608737 | etot = -94.9832041226366
850000  ekin = 0.851431864202154 |  erot = 6.56907458744626 | epot = -102.403710574249 | etot = -94.9832041226007
851000  ekin = 0.862087309703843 |  erot = 6.46923994941769 | epot = -102.314531381673 | etot = -94.9832041225516
852000  ekin = 0.872679161464646 |  erot = 6.34683153555899 | epot = -102.202714819511 | etot = -94.9832041224877
853000  ekin = 0.88312145879511 |  erot = 6.2029059483303 | epot = -102.069231529536 | etot = -94.9832041224108
854000  ekin = 0.893327903089128 |  erot = 6.03871026875653 | epot = -101.915242294169 | etot = -94.9832041223229
855000  ekin = 0.903206742302999 |  erot = 5.85568009756366 | epot = -101.742090962091 | etot = -94.9832041222239
856000  ekin = 0.912657805362416 |  erot = 5.65543391422053 | epot = -101.551295841697 | etot = -94.983204122114
857000  ekin = 0.92157208650851 |  erot = 5.43998477316727 | epot = -101.344760981578 | etot = -94.9832041219019
858000  ekin = 0.929833136652852 |  erot = 5.21174313756735 | epot = -101.124780395896 | etot = -94.983204121676
859000  ekin = 0.937324134118696 |  erot = 4.97322013458768 | epot = -100.893748390179 | etot = -94.9832041214726
860000  ekin = 0.943935823346038 |  erot = 4.72704576970531 | epot = -100.654185714406 | etot = -94.9832041213548
861000  ekin = 0.949573268227364 |  erot = 4.47539780180526 | epot = -100.408175191266 | etot = -94.9832041212331
862000  ekin = 0.954166585168041 |  erot = 4.22030716492863 | epot = -100.157677871151 | etot = -94.9832041210547
863000  ekin = 0.957679184793171 |  erot = 3.96416710854663 | epot = -99.9050504141188 | etot = -94.983204120779
864000  ekin = 0.960112491835564 |  erot = 3.70971859265062 | epot = -99.6530352051617 | etot = -94.9832041206755
865000  ekin = 0.961506833455226 |  erot = 3.45899967744896 | epot = -99.4037106314771 | etot = -94.9832041205729
866000  ekin = 0.961941057109497 |  erot = 3.21372700658406 | epot = -99.1588721841343 | etot = -94.9832041204407
867000  ekin = 0.961527815798352 |  erot = 2.97564195873167 | epot = -98.9203738946759 | etot = -94.9832041201459
868000  ekin = 0.960405424409762 |  erot = 2.74739905920462 | epot = -98.6910086037065 | etot = -94.9832041200921
869000  ekin = 0.958727753330351 |  erot = 2.53037265445057 | epot = -98.4723045278024 | etot = -94.9832041200214
870000  ekin = 0.956650676911828 |  erot = 2.32526991194476 | epot = -98.2651247088343 | etot = -94.9832041199777
871000  ekin = 0.954320144712299 |  erot = 2.1325887668125 | epot = -98.0701130314609 | etot = -94.9832041199361
872000  ekin = 0.951861630437437 |  erot = 1.95282089833346 | epot = -97.8878866486667 | etot = -94.9832041198958
873000  ekin = 0.949371763051122 |  erot = 1.78648379792717 | epot = -97.7190596808237 | etot = -94.9832041198454
874000  ekin = 0.946912744283296 |  erot = 1.63425612595308 | epot = -97.5643729900435 | etot = -94.9832041198071
875000  ekin = 0.944510147614632 |  erot = 1.49674162303453 | epot = -97.4244558904166 | etot = -94.9832041197674
876000  ekin = 0.942153840354493 |  erot = 1.37460559259164 | epot = -97.2999635526709 | etot = -94.9832041197247
877000  ekin = 0.939801366276176 |  erot = 1.26859418715939 | epot = -97.191599673124 | etot = -94.9832041196884
878000  ekin = 0.937383093095634 |  erot = 1.17936807545952 | epot = -97.099955288206 | etot = -94.9832041196508
879000  ekin = 0.934809203166261 |  erot = 1.10761404298653 | epot = -97.0256273657649 | etot = -94.9832041196121
880000  ekin = 0.931977745406549 |  erot = 1.05404603187295 | epot = -96.9692278968537 | etot = -94.9832041195742
881000  ekin = 0.928782958560523 |  erot = 1.0193772175107 | epot = -96.9313642956085 | etot = -94.9832041195373
882000  ekin = 0.925123290673889 |  erot = 1.00428672920036 | epot = -96.9126141393786 | etot = -94.9832041195043
883000  ekin = 0.920908665977306 |  erot = 1.00938307259373 | epot = -96.9134958580502 | etot = -94.9832041194792
884000  ekin = 0.916066691931216 |  erot = 1.03516662277253 | epot = -96.9344374341644 | etot = -94.9832041194607
885000  ekin = 0.910547633849477 |  erot = 1.08199367507244 | epot = -96.9757454283731 | etot = -94.9832041194512
886000  ekin = 0.904328105113876 |  erot = 1.15004449384937 | epot = -97.0375767184173 | etot = -94.9832041194541
887000  ekin = 0.897413516201757 |  erot = 1.2392975840405 | epot = -97.1199152197099 | etot = -94.9832041194676
888000  ekin = 0.889839385271723 |  erot = 1.34951204565609 | epot = -97.2225555504219 | etot = -94.9832041194941
889000  ekin = 0.881671622170778 |  erot = 1.48021937321014 | epot = -97.3450951149141 | etot = -94.9832041195332
890000  ekin = 0.873005940802939 |  erot = 1.6307254824326 | epot = -97.4869355428195 | etot = -94.983204119584
891000  ekin = 0.863966416485196 |  erot = 1.8001230530573 | epot = -97.6472935891883 | etot = -94.9832041196458
892000  ekin = 0.854703236636742 |  erot = 1.98730114853665 | epot = -97.8252085049036 | etot = -94.9832041197302
893000  ekin = 0.845389642234339 |  erot = 2.19090010869273 | epot = -98.0194938707615 | etot = -94.9832041198345
894000  ekin = 0.836217865152403 |  erot = 2.40931784071401 | epot = -98.228739825796 | etot = -94.9832041199295
895000  ekin = 0.827393845746198 |  erot = 2.6407787840433 | epot = -98.4513767498584 | etot = -94.9832041200689
896000  ekin = 0.819130719253325 |  erot = 2.88309679910792 | epot = -98.685431638537 | etot = -94.9832041201757
897000  ekin = 0.811641203396189 |  erot = 3.13432322383183 | epot = -98.9291685475199 | etot = -94.9832041202919
898000  ekin = 0.805128364841184 |  erot = 3.3924045675632 | epot = -99.1807370528289 | etot = -94.9832041204245
899000  ekin = 0.799775765126613 |  erot = 3.65483429056076 | epot = -99.4378141763054 | etot = -94.983204120618
900000  ekin = 0.795737075017361 |  erot = 3.91876893336829 | epot = -99.6977101291907 | etot = -94.9832041208051
901000  ekin = 0.793124779634793 |  erot = 4.18180496944679 | epot = -99.9581338700104 | etot = -94.9832041209288
902000  ekin = 0.792003069479922 |  erot = 4.44162732764587 | epot = -100.216834518357 | etot = -94.9832041212311
903000  ekin = 0.792383753810154 |  erot = 4.69523977340274 | epot = -100.470827648764 | etot = -94.9832041215509
904000  ekin = 0.79422434232498 |  erot = 4.93937414469269 | epot = -100.716802608708 | etot = -94.9832041216905
905000  ekin = 0.797428009635975 |  erot = 5.17148582158152 | epot = -100.952117953039 | etot = -94.983204121822
906000  ekin = 0.801848465576023 |  erot = 5.38975102514438 | epot = -101.174803612663 | etot = -94.9832041219429
907000  ekin = 0.807298258148022 |  erot = 5.59252625089317 | epot = -101.383028631097 | etot = -94.9832041220559
908000  ekin = 0.813560082401018 |  erot = 5.77834556163731 | epot = -101.575109766196 | etot = -94.9832041221574
909000  ekin = 0.820400454602388 |  erot = 5.94542095172371 | epot = -101.749025528703 | etot = -94.9832041223772
910000  ekin = 0.827584229457587 |  erot = 6.09200973288408 | epot = -101.902798084806 | etot = -94.9832041224643
911000  ekin = 0.834887528523215 |  erot = 6.21703975558536 | epot = -102.035131406645 | etot = -94.9832041225369
912000  ekin = 0.842110751473642 |  erot = 6.31962602140862 | epot = -102.144940895477 | etot = -94.9832041225952
913000  ekin = 0.849089846798588 |  erot = 6.3990757985261 | epot = -102.231369767961 | etot = -94.983204122636
914000  ekin = 0.855704820644246 |  erot = 6.45489476210671 | epot = -102.29380370541 | etot = -94.9832041226595
915000  ekin = 0.861885158799146 |  erot = 6.48679313002091 | epot = -102.331882411487 | etot = -94.9832041226666
916000  ekin = 0.86761215411329 |  erot = 6.49469074058287 | epot = -102.345507017352 | etot = -94.9832041226558
917000  ekin = 0.872918478048375 |  erot = 6.47872082331179 | epot = -102.334843423987 | etot = -94.9832041226273
918000  ekin = 0.877885441618671 |  erot = 6.43923183664515 | epot = -102.300321400845 | etot = -94.9832041225816
919000  ekin = 0.882638431484191 |  erot = 6.37678721848103 | epot = -102.242629772484 | etot = -94.9832041225189
920000  ekin = 0.887340866263615 |  erot = 6.2921626281449 | epot = -102.16270761685 | etot = -94.9832041224416
921000  ekin = 0.89218680725968 |  erot = 6.18634080195346 | epot = -102.061731731563 | etot = -94.9832041223503
922000  ekin = 0.897392107922277 |  erot = 6.06050374867744 | epot = -101.941099978845 | etot = -94.9832041222455
923000  ekin = 0.903183870560248 |  erot = 5.91602231049896 | epot = -101.802410303188 | etot = -94.9832041221289
924000  ekin = 0.909787915683741 |  erot = 5.75444250492266 | epot = -101.647434542609 | etot = -94.9832041220022
925000  ekin = 0.917414211960289 |  erot = 5.57746866009105 | epot = -101.478086993921 | etot = -94.9832041218693
926000  ekin = 0.92624056228727 |  erot = 5.38694301238281 | epot = -101.296387696403 | etot = -94.9832041217326
927000  ekin = 0.936395320615248 |  erot = 5.18482162101312 | epot = -101.104421063223 | etot = -94.9832041215948
928000  ekin = 0.947940356507119 |  erot = 4.9731467485596 | epot = -100.904291226526 | etot = -94.983204121459
929000  ekin = 0.960855841189242 |  erot = 4.75401603307927 | epot = -100.698075995596 | etot = -94.983204121327
930000  ekin = 0.975028613363819 |  erot = 4.52954906949165 | epot = -100.48778180406 | etot = -94.9832041212044
931000  ekin = 0.990245849866534 |  erot = 4.30185229726555 | epot = -100.275302268223 | etot = -94.9832041210907
932000  ekin = 1.00619540491856 |  erot = 4.07298356832569 | epot = -100.062383094233 | etot = -94.9832041209884
933000  ekin = 1.02247368548487 |  erot = 3.84491815376633 | epot = -99.85059596015 | etot = -94.9832041208988
934000  ekin = 1.03860120067137 |  erot = 3.61951794232299 | epot = -99.6413232638168 | etot = -94.9832041208224
935000  ekin = 1.0540451224495 |  erot = 3.39850538594632 | epot = -99.4357546291542 | etot = -94.9832041207584
936000  ekin = 1.0682474022236 |  erot = 3.18344367387885 | epot = -99.2348951968074 | etot = -94.9832041207049
937000  ekin = 1.08065646155175 |  erot = 2.97572420557442 | epot = -99.0395847877861 | etot = -94.9832041206599
938000  ekin = 1.09075990705148 |  erot = 2.77656158388932 | epot = -98.8505256115627 | etot = -94.9832041206219
939000  ekin = 1.09811568129934 |  erot = 2.58699608749607 | epot = -98.668315889384 | etot = -94.9832041205886
940000  ekin = 1.10237927232581 |  erot = 2.4079032716188 | epot = -98.4934866645017 | etot = -94.9832041205571
941000  ekin = 1.10332501970361 |  erot = 2.24001009319257 | epot = -98.326539233421 | etot = -94.9832041205248
942000  ekin = 1.10086020589294 |  erot = 2.08391687723243 | epot = -98.1679812036149 | etot = -94.9832041204895
943000  ekin = 1.09503133080128 |  erot = 1.94012428961924 | epot = -98.0183597408699 | etot = -94.9832041204493
944000  ekin = 1.08602263005636 |  erot = 1.80906421371726 | epot = -97.878290964177 | etot = -94.9832041204034
945000  ekin = 1.07414751978278 |  erot = 1.69113298083846 | epot = -97.7484846209716 | etot = -94.9832041203503
946000  ekin = 1.05983387377365 |  erot = 1.58672475948097 | epot = -97.6297627535444 | etot = -94.9832041202898
947000  ekin = 1.04360439167809 |  erot = 1.49626251393149 | epot = -97.5230710258313 | etot = -94.9832041202218
948000  ekin = 1.02605333942086 |  erot = 1.42022359379196 | epot = -97.429481053358 | etot = -94.9832041201452
949000  ekin = 1.00782092039612 |  erot = 1.3591571084296 | epot = -97.3501821488885 | etot = -94.9832041200628
950000  ekin = 0.989566474040661 |  erot = 1.31369071379641 | epot = -97.2864613078135 | etot = -94.9832041199765
951000  ekin = 0.97194162353769 |  erot = 1.28452535481689 | epot = -97.2396710982422 | etot = -94.9832041198876
952000  ekin = 0.955564409677367 |  erot = 1.27241760772802 | epot = -97.2111861372071 | etot = -94.9832041198017
953000  ekin = 0.94099535638751 |  erot = 1.27815042942581 | epot = -97.2023499055347 | etot = -94.9832041197214
954000  ekin = 0.928716303918186 |  erot = 1.30249414203154 | epot = -97.2144145656017 | etot = -94.983204119652
955000  ekin = 0.919112711034888 |  erot = 1.34616022308081 | epot = -97.2484770537119 | etot = -94.9832041195962
956000  ekin = 0.912459971102161 |  erot = 1.40975087718428 | epot = -97.3054149678447 | etot = -94.9832041195583
957000  ekin = 0.908914125742623 |  erot = 1.49370745658441 | epot = -97.3858257018685 | etot = -94.9832041195414
958000  ekin = 0.908507210122071 |  erot = 1.59826065552122 | epot = -97.4899719851922 | etot = -94.9832041195489
959000  ekin = 0.911147352689709 |  erot = 1.72338513456239 | epot = -97.6177366068349 | etot = -94.9832041195828
960000  ekin = 0.916623717955996 |  erot = 1.8687609440447 | epot = -97.7685887816455 | etot = -94.9832041196448
961000  ekin = 0.924616327719928 |  erot = 2.03374382078256 | epot = -97.941564268237 | etot = -94.9832041197345
962000  ekin = 0.934710773248374 |  erot = 2.21734615605918 | epot = -98.1352610491591 | etot = -94.9832041198516
963000  ekin = 0.946417717355509 |  erot = 2.41823009309267 | epot = -98.3478519304415 | etot = -94.9832041199933
964000  ekin = 0.959196842385019 |  erot = 2.63471373793033 | epot = -98.5771147004737 | etot = -94.9832041201584
965000  ekin = 0.972484490966355 |  erot = 2.86479080559476 | epot = -98.8204794169028 | etot = -94.9832041203417
966000  ekin = 0.985723702331743 |  erot = 3.10616317879612 | epot = -99.0750910016676 | etot = -94.9832041205398
967000  ekin = 0.998394770112729 |  erot = 3.35628491169357 | epot = -99.3378838025526 | etot = -94.9832041207463
968000  ekin = 1.01004394712965 |  erot = 3.61241525008581 | epot = -99.6056633181715 | etot = -94.983204120956
969000  ekin = 1.0203077268089 |  erot = 3.87167756677478 | epot = -99.8751894147486 | etot = -94.983204121165
970000  ekin = 1.02893031986009 |  erot = 4.13112072182223 | epot = -100.14325516305 | etot = -94.9832041213674
971000  ekin = 1.03577251128514 |  erot = 4.38777943941245 | epot = -100.406756072258 | etot = -94.9832041215601
972000  ekin = 1.04081107352771 |  erot = 4.63873078124284 | epot = -100.66274597651 | etot = -94.9832041217397
973000  ekin = 1.04412906001141 |  erot = 4.8811446644147 | epot = -100.908477846331 | etot = -94.9832041219049
974000  ekin = 1.04589841705397 |  erot = 5.11232740218267 | epot = -101.141429941291 | etot = -94.9832041220542
975000  ekin = 1.04635720039305 |  erot = 5.32975811225048 | epot = -101.359319434833 | etot = -94.9832041221891
976000  ekin = 1.04578409966278 |  erot = 5.53111866801301 | epot = -101.560106889984 | etot = -94.983204122308
977000  ekin = 1.04447293787325 |  erot = 5.71431812063648 | epot = -101.741995180921 | etot = -94.9832041224117
978000  ekin = 1.04270935690952 |  erot = 5.8775125100128 | epot = -101.903425989422 | etot = -94.9832041224999
979000  ekin = 1.04075118243478 |  erot = 6.01912059577284 | epot = -102.043075900781 | etot = -94.9832041225733
980000  ekin = 1.03881319608089 |  erot = 6.13783551880202 | epot = -102.159852837515 | etot = -94.9832041226318
981000  ekin = 1.03705640280774 |  erot = 6.23263202656571 | epot = -102.252892552048 | etot = -94.9832041226748
982000  ekin = 1.03558146730079 |  erot = 6.30276879153047 | epot = -102.321554381535 | etot = -94.9832041227037
983000  ekin = 1.03442588560869 |  erot = 6.34778526589997 | epot = -102.365415274228 | etot = -94.9832041227191
984000  ekin = 1.03356448154723 |  erot = 6.36749334416473 | epot = -102.384261948434 | etot = -94.9832041227217
985000  ekin = 1.03291296328565 |  erot = 6.36196482399636 | epot = -102.378081909993 | etot = -94.9832041227115
986000  ekin = 1.03233443776388 |  erot = 6.33151593188523 | epot = -102.347054492339 | etot = -94.9832041226896
987000  ekin = 1.03164874680131 |  erot = 6.27669087251786 | epot = -102.291543741974 | etot = -94.9832041226549
988000  ekin = 1.03064435261532 |  erot = 6.19824638486828 | epot = -102.212094860093 | etot = -94.9832041226095
989000  ekin = 1.02909229526109 |  erot = 6.09713864419986 | epot = -102.109435062013 | etot = -94.9832041225523
990000  ekin = 1.02676147887456 |  erot = 5.97451343702168 | epot = -101.984479038378 | etot = -94.9832041224818
991000  ekin = 1.02343439929292 |  erot = 5.83169958321732 | epot = -101.838338104907 | etot = -94.9832041223968
992000  ekin = 1.01892239773934 |  erot = 5.67020449887903 | epot = -101.672331018856 | etot = -94.9832041222377
993000  ekin = 1.01307910807771 |  erot = 5.49203171733406 | epot = -101.488314947544 | etot = -94.9832041221323
994000  ekin = 1.00581128835079 |  erot = 5.29925727608647 | epot = -101.28827268645 | etot = -94.9832041220123
995000  ekin = 0.997089521021771 |  erot = 5.09399411088809 | epot = -101.07428775371 | etot = -94.9832041217999
996000  ekin = 0.986949759739666 |  erot = 4.87900230476891 | epot = -100.849156186171 | etot = -94.9832041216627
997000  ekin = 0.975500471354879 |  erot = 4.65645364929154 | epot = -100.615158242105 | etot = -94.9832041214581
998000  ekin = 0.962926709412791 |  erot = 4.42931421086291 | epot = -100.375445041473 | etot = -94.9832041211972
999000  ekin = 0.949480869804184 |  erot = 4.20017929377593 | epot = -100.132864284641 | etot = -94.983204121061
1000000  ekin = 0.93547543532822 |  erot = 3.97092118885678 | epot = -99.8896007450923 | etot = -94.9832041209073
 1000000  0.010941233   -1.7423217  0.020087183   -1.7061056 -0.0002459796        35937 
Loop time of 287.221 on 1 procs for 1000000 steps with 58 atoms

Performance: 3008.141 tau/day, 3481.645 timesteps/s
99.9% CPU use with 1 MPI tasks x no OpenMP threads

MPI task timing breakdown:
Section |  min time  |  avg time  |  max time  |%varavg| %total
---------------------------------------------------------------
Pair    | 268.66     | 268.66     | 268.66     |   0.0 | 93.54
Bond    | 4.2454     | 4.2454     | 4.2454     |   0.0 |  1.48
Neigh   | 0.041719   | 0.041719   | 0.041719   |   0.0 |  0.01
Comm    | 5.9872     | 5.9872     | 5.9872     |   0.0 |  2.08
Output  | 0.4399     | 0.4399     | 0.4399     |   0.0 |  0.15
Modify  | 6.9782     | 6.9782     | 6.9782     |   0.0 |  2.43
Other   |            | 0.8638     |            |       |  0.30

Nlocal:        58.0000 ave          58 max          58 min
Histogram: 1 0 0 0 0 0 0 0 0 0
Nghost:        294.000 ave         294 max         294 min
Histogram: 1 0 0 0 0 0 0 0 0 0
Neighs:        1132.00 ave        1132 max        1132 min
Histogram: 1 0 0 0 0 0 0 0 0 0

Total # of neighbors = 1132
Ave neighs/atom = 19.517241
Ave special neighs/atom = 5.5862069
Neighbor list builds = 1000
Dangerous builds = 0

write_data last_config.${number}.* nocoeff
write_data last_config.1.* nocoeff
System init for write_data ...
#write_restart last_config.${number}.*
Total wall time: 0:04:47
