# LAMMPS data file
58 atoms
58 ellipsoids
56 bonds

4 atom types
1 bond types

# System size
0.000000 33.000000 xlo xhi
0.000000 33.000000 ylo yhi
0.000000 33.000000 zlo zhi

Masses

1 3.1575
2 3.1575
3 3.1575
4 3.1575

# Atom-ID, type, position, molecule-ID, ellipsoid flag, density
Atoms

1 3 -5.790098905563354e-01  4.426864981651306e-01  1.091335964202881e+01 1 1 1
2 2 -5.612664222717285e-01  8.120849132537842e-01  1.052359676361084e+01 1 1 1
3 4 -3.302884399890900e-01  1.100908756256104e+00  1.013383388519287e+01 1 1 1
4 1  2.617163211107254e-02  1.199428915977478e+00  9.744071006774902e+00 1 1 1
5 3  3.726886808872223e-01  1.070216059684753e+00  9.354308128356934e+00 1 1 1
6 2  5.776150226593018e-01  7.623602747917175e-01  8.964545249938965e+00 1 1 1
7 1  5.630958080291748e-01  3.928210735321045e-01  8.574782371520996e+00 1 1 1
8 2  3.346470594406128e-01  1.019926294684410e-01  8.185019493103027e+00 1 1 1
9 2 -2.093969844281673e-02  3.655038017313927e-04  7.795257091522217e+00 1 1 1
10 2 -3.685711324214935e-01  1.265495419502258e-01  7.405494213104248e+00 1 1 1
11 2 -5.761762261390686e-01  4.326053261756897e-01  7.015731334686279e+00 1 1 1
12 4 -5.648823380470276e-01  8.022571802139282e-01  6.625968456268311e+00 1 1 1
13 1 -3.389801979064941e-01  1.095068097114563e+00  6.236205577850342e+00 1 1 1
14 3  1.570616848766804e-02  1.199794411659241e+00  5.846442699432373e+00 1 1 1
15 3  3.644255101680756e-01  1.076648831367493e+00  5.456679821014404e+00 1 1 1
16 4  5.746935009956360e-01  7.724162936210632e-01  5.066916942596436e+00 1 1 1
17 1  5.666258335113525e-01  4.026800096035004e-01  4.677154064178467e+00 1 1 1
18 2  3.432875275611877e-01  1.079088747501373e-01  4.287391185760498e+00 1 1 1
19 3 -1.047144364565611e-02  9.138290624832734e-05  3.897628545761108e+00 1 1 1
20 2 -3.602521419525146e-01  1.201892048120499e-01  3.507865667343140e+00 1 1 1
21 4 -5.731670260429382e-01  4.225751757621765e-01  3.118102788925171e+00 1 1 1
22 4 -5.683261752128601e-01  7.923678159713745e-01  2.728339910507202e+00 1 1 1
23 1 -3.475686907768250e-01  1.089076638221741e+00  2.338577032089233e+00 1 1 1
24 1  5.235921125859022e-03  1.199977159500122e+00  1.948814272880554e+00 1 1 1
25 3  3.560513257980347e-01  1.082936286926270e+00  1.559051394462585e+00 1 1 1
26 3  5.715968608856201e-01  7.824198603630066e-01  1.169288516044617e+00 1 1 1
27 2  5.699832439422607e-01  4.125990569591522e-01  7.795256972312927e-01 1 1 1
28 1  3.518234193325043e-01  1.139750182628632e-01  3.897628486156464e-01 1 1 1
29 1  0.000000000000000e+00  0.000000000000000e+00  0.000000000000000e+00 1 1 1
30 4  0.000000000000000e+00  1.200000047683716e+00  0.000000000000000e+00 2 1 1
31 4 -3.518234193325043e-01  1.086024999618530e+00  3.897628486156464e-01 2 1 1
32 3 -5.699832439422607e-01  7.874009609222412e-01  7.795256972312927e-01 2 1 1
33 2 -5.715968608856201e-01  4.175801575183868e-01  1.169288516044617e+00 2 1 1
34 2 -3.560513257980347e-01  1.170637235045433e-01  1.559051394462585e+00 2 1 1
35 4 -5.235921125859022e-03  2.284616130054928e-05  1.948814272880554e+00 2 1 1
36 4  3.475686907768250e-01  1.109233200550079e-01  2.338577032089233e+00 2 1 1
37 1  5.683261752128601e-01  4.076322019100189e-01  2.728339910507202e+00 2 1 1
38 1  5.731670260429382e-01  7.774248123168945e-01  3.118102788925171e+00 2 1 1
39 3  3.602521419525146e-01  1.079810738563538e+00  3.507865667343140e+00 2 1 1
40 2  1.047144364565611e-02  1.199908614158630e+00  3.897628545761108e+00 2 1 1
41 3 -3.432875275611877e-01  1.092091083526611e+00  4.287391185760498e+00 2 1 1
42 4 -5.666258335113525e-01  7.973200082778931e-01  4.677154064178467e+00 2 1 1
43 1 -5.746935009956360e-01  4.275836944580078e-01  5.066916942596436e+00 2 1 1
44 2 -3.644255101680756e-01  1.233512312173843e-01  5.456679821014404e+00 2 1 1
45 2 -1.570616848766804e-02  2.056050143437460e-04  5.846442699432373e+00 2 1 1
46 4  3.389801979064941e-01  1.049318984150887e-01  6.236205577850342e+00 2 1 1
47 1  5.648823380470276e-01  3.977428376674652e-01  6.625968456268311e+00 2 1 1
48 3  5.761762261390686e-01  7.673946619033813e-01  7.015731334686279e+00 2 1 1
49 3  3.685711324214935e-01  1.073450446128845e+00  7.405494213104248e+00 2 1 1
50 3  2.093969844281673e-02  1.199634552001953e+00  7.795257091522217e+00 2 1 1
51 3 -3.346470594406128e-01  1.098007321357727e+00  8.185019493103027e+00 2 1 1
52 4 -5.630958080291748e-01  8.071789145469666e-01  8.574782371520996e+00 2 1 1
53 3 -5.776150226593018e-01  4.376397430896759e-01  8.964545249938965e+00 2 1 1
54 2 -3.726886808872223e-01  1.297839283943176e-01  9.354308128356934e+00 2 1 1
55 4 -2.617163211107254e-02  5.710670375265181e-04  9.744071006774902e+00 2 1 1
56 1  3.302884399890900e-01  9.909128397703171e-02  1.013383388519287e+01 2 1 1
57 3  5.612664222717285e-01  3.879151046276093e-01  1.052359676361084e+01 2 1 1
58 2  5.790098905563354e-01  7.573134899139404e-01  1.091335964202881e+01 2 1 1

# Atom-ID, translational, rotational velocity
Velocities

1  0.000000000000000e+00  0.000000000000000e+00  0.000000000000000e+00  0.000000000000000e+00  0.000000000000000e+00  0.000000000000000e+00
2  0.000000000000000e+00  0.000000000000000e+00  0.000000000000000e+00  0.000000000000000e+00  0.000000000000000e+00  0.000000000000000e+00
3  0.000000000000000e+00  0.000000000000000e+00  0.000000000000000e+00  0.000000000000000e+00  0.000000000000000e+00  0.000000000000000e+00
4  0.000000000000000e+00  0.000000000000000e+00  0.000000000000000e+00  0.000000000000000e+00  0.000000000000000e+00  0.000000000000000e+00
5  0.000000000000000e+00  0.000000000000000e+00  0.000000000000000e+00  0.000000000000000e+00  0.000000000000000e+00  0.000000000000000e+00
6  0.000000000000000e+00  0.000000000000000e+00  0.000000000000000e+00  0.000000000000000e+00  0.000000000000000e+00  0.000000000000000e+00
7  0.000000000000000e+00  0.000000000000000e+00  0.000000000000000e+00  0.000000000000000e+00  0.000000000000000e+00  0.000000000000000e+00
8  0.000000000000000e+00  0.000000000000000e+00  0.000000000000000e+00  0.000000000000000e+00  0.000000000000000e+00  0.000000000000000e+00
9  0.000000000000000e+00  0.000000000000000e+00  0.000000000000000e+00  0.000000000000000e+00  0.000000000000000e+00  0.000000000000000e+00
10  0.000000000000000e+00  0.000000000000000e+00  0.000000000000000e+00  0.000000000000000e+00  0.000000000000000e+00  0.000000000000000e+00
11  0.000000000000000e+00  0.000000000000000e+00  0.000000000000000e+00  0.000000000000000e+00  0.000000000000000e+00  0.000000000000000e+00
12  0.000000000000000e+00  0.000000000000000e+00  0.000000000000000e+00  0.000000000000000e+00  0.000000000000000e+00  0.000000000000000e+00
13  0.000000000000000e+00  0.000000000000000e+00  0.000000000000000e+00  0.000000000000000e+00  0.000000000000000e+00  0.000000000000000e+00
14  0.000000000000000e+00  0.000000000000000e+00  0.000000000000000e+00  0.000000000000000e+00  0.000000000000000e+00  0.000000000000000e+00
15  0.000000000000000e+00  0.000000000000000e+00  0.000000000000000e+00  0.000000000000000e+00  0.000000000000000e+00  0.000000000000000e+00
16  0.000000000000000e+00  0.000000000000000e+00  0.000000000000000e+00  0.000000000000000e+00  0.000000000000000e+00  0.000000000000000e+00
17  0.000000000000000e+00  0.000000000000000e+00  0.000000000000000e+00  0.000000000000000e+00  0.000000000000000e+00  0.000000000000000e+00
18  0.000000000000000e+00  0.000000000000000e+00  0.000000000000000e+00  0.000000000000000e+00  0.000000000000000e+00  0.000000000000000e+00
19  0.000000000000000e+00  0.000000000000000e+00  0.000000000000000e+00  0.000000000000000e+00  0.000000000000000e+00  0.000000000000000e+00
20  0.000000000000000e+00  0.000000000000000e+00  0.000000000000000e+00  0.000000000000000e+00  0.000000000000000e+00  0.000000000000000e+00
21  0.000000000000000e+00  0.000000000000000e+00  0.000000000000000e+00  0.000000000000000e+00  0.000000000000000e+00  0.000000000000000e+00
22  0.000000000000000e+00  0.000000000000000e+00  0.000000000000000e+00  0.000000000000000e+00  0.000000000000000e+00  0.000000000000000e+00
23  0.000000000000000e+00  0.000000000000000e+00  0.000000000000000e+00  0.000000000000000e+00  0.000000000000000e+00  0.000000000000000e+00
24  0.000000000000000e+00  0.000000000000000e+00  0.000000000000000e+00  0.000000000000000e+00  0.000000000000000e+00  0.000000000000000e+00
25  0.000000000000000e+00  0.000000000000000e+00  0.000000000000000e+00  0.000000000000000e+00  0.000000000000000e+00  0.000000000000000e+00
26  0.000000000000000e+00  0.000000000000000e+00  0.000000000000000e+00  0.000000000000000e+00  0.000000000000000e+00  0.000000000000000e+00
27  0.000000000000000e+00  0.000000000000000e+00  0.000000000000000e+00  0.000000000000000e+00  0.000000000000000e+00  0.000000000000000e+00
28  0.000000000000000e+00  0.000000000000000e+00  0.000000000000000e+00  0.000000000000000e+00  0.000000000000000e+00  0.000000000000000e+00
29  0.000000000000000e+00  0.000000000000000e+00  0.000000000000000e+00  0.000000000000000e+00  0.000000000000000e+00  0.000000000000000e+00
30  0.000000000000000e+00  0.000000000000000e+00  0.000000000000000e+00  0.000000000000000e+00  0.000000000000000e+00  0.000000000000000e+00
31  0.000000000000000e+00  0.000000000000000e+00  0.000000000000000e+00  0.000000000000000e+00  0.000000000000000e+00  0.000000000000000e+00
32  0.000000000000000e+00  0.000000000000000e+00  0.000000000000000e+00  0.000000000000000e+00  0.000000000000000e+00  0.000000000000000e+00
33  0.000000000000000e+00  0.000000000000000e+00  0.000000000000000e+00  0.000000000000000e+00  0.000000000000000e+00  0.000000000000000e+00
34  0.000000000000000e+00  0.000000000000000e+00  0.000000000000000e+00  0.000000000000000e+00  0.000000000000000e+00  0.000000000000000e+00
35  0.000000000000000e+00  0.000000000000000e+00  0.000000000000000e+00  0.000000000000000e+00  0.000000000000000e+00  0.000000000000000e+00
36  0.000000000000000e+00  0.000000000000000e+00  0.000000000000000e+00  0.000000000000000e+00  0.000000000000000e+00  0.000000000000000e+00
37  0.000000000000000e+00  0.000000000000000e+00  0.000000000000000e+00  0.000000000000000e+00  0.000000000000000e+00  0.000000000000000e+00
38  0.000000000000000e+00  0.000000000000000e+00  0.000000000000000e+00  0.000000000000000e+00  0.000000000000000e+00  0.000000000000000e+00
39  0.000000000000000e+00  0.000000000000000e+00  0.000000000000000e+00  0.000000000000000e+00  0.000000000000000e+00  0.000000000000000e+00
40  0.000000000000000e+00  0.000000000000000e+00  0.000000000000000e+00  0.000000000000000e+00  0.000000000000000e+00  0.000000000000000e+00
41  0.000000000000000e+00  0.000000000000000e+00  0.000000000000000e+00  0.000000000000000e+00  0.000000000000000e+00  0.000000000000000e+00
42  0.000000000000000e+00  0.000000000000000e+00  0.000000000000000e+00  0.000000000000000e+00  0.000000000000000e+00  0.000000000000000e+00
43  0.000000000000000e+00  0.000000000000000e+00  0.000000000000000e+00  0.000000000000000e+00  0.000000000000000e+00  0.000000000000000e+00
44  0.000000000000000e+00  0.000000000000000e+00  0.000000000000000e+00  0.000000000000000e+00  0.000000000000000e+00  0.000000000000000e+00
45  0.000000000000000e+00  0.000000000000000e+00  0.000000000000000e+00  0.000000000000000e+00  0.000000000000000e+00  0.000000000000000e+00
46  0.000000000000000e+00  0.000000000000000e+00  0.000000000000000e+00  0.000000000000000e+00  0.000000000000000e+00  0.000000000000000e+00
47  0.000000000000000e+00  0.000000000000000e+00  0.000000000000000e+00  0.000000000000000e+00  0.000000000000000e+00  0.000000000000000e+00
48  0.000000000000000e+00  0.000000000000000e+00  0.000000000000000e+00  0.000000000000000e+00  0.000000000000000e+00  0.000000000000000e+00
49  0.000000000000000e+00  0.000000000000000e+00  0.000000000000000e+00  0.000000000000000e+00  0.000000000000000e+00  0.000000000000000e+00
50  0.000000000000000e+00  0.000000000000000e+00  0.000000000000000e+00  0.000000000000000e+00  0.000000000000000e+00  0.000000000000000e+00
51  0.000000000000000e+00  0.000000000000000e+00  0.000000000000000e+00  0.000000000000000e+00  0.000000000000000e+00  0.000000000000000e+00
52  0.000000000000000e+00  0.000000000000000e+00  0.000000000000000e+00  0.000000000000000e+00  0.000000000000000e+00  0.000000000000000e+00
53  0.000000000000000e+00  0.000000000000000e+00  0.000000000000000e+00  0.000000000000000e+00  0.000000000000000e+00  0.000000000000000e+00
54  0.000000000000000e+00  0.000000000000000e+00  0.000000000000000e+00  0.000000000000000e+00  0.000000000000000e+00  0.000000000000000e+00
55  0.000000000000000e+00  0.000000000000000e+00  0.000000000000000e+00  0.000000000000000e+00  0.000000000000000e+00  0.000000000000000e+00
56  0.000000000000000e+00  0.000000000000000e+00  0.000000000000000e+00  0.000000000000000e+00  0.000000000000000e+00  0.000000000000000e+00
57  0.000000000000000e+00  0.000000000000000e+00  0.000000000000000e+00  0.000000000000000e+00  0.000000000000000e+00  0.000000000000000e+00
58  0.000000000000000e+00  0.000000000000000e+00  0.000000000000000e+00  0.000000000000000e+00  0.000000000000000e+00  0.000000000000000e+00

# Atom-ID, shape, quaternion
Ellipsoids

1  1.173984503142341e+00  1.173984503142341e+00  1.173984503142341e+00  0.000000000000000e+00  9.912155381076951e-01  1.322564063245057e-01  0.000000000000000e+00
2  1.173984503142341e+00  1.173984503142341e+00  1.173984503142341e+00 -0.000000000000000e+00  9.837286235564535e-01 -1.796607781228995e-01  0.000000000000000e+00
3  1.173984503142341e+00  1.173984503142341e+00  1.173984503142341e+00 -0.000000000000000e+00  8.804773348339614e-01 -4.740882437307261e-01  0.000000000000000e+00
4  1.173984503142341e+00  1.173984503142341e+00  1.173984503142341e+00  0.000000000000000e+00  6.915130556784508e-01 -7.223639621591404e-01  0.000000000000000e+00
5  1.173984503142341e+00  1.173984503142341e+00  1.173984503142341e+00  0.000000000000000e+00 -4.352310995135081e-01  9.003187713339441e-01  0.000000000000000e+00
6  1.173984503142341e+00  1.173984503142341e+00  1.173984503142341e+00  0.000000000000000e+00 -1.365801306627798e-01  9.906290263807830e-01  0.000000000000000e+00
7  1.173984503142341e+00  1.173984503142341e+00  1.173984503142341e+00  0.000000000000000e+00  1.753667285392832e-01  9.845031795385070e-01  0.000000000000000e+00
8  1.173984503142341e+00  1.173984503142341e+00  1.173984503142341e+00  0.000000000000000e+00  4.702419035553633e-01  8.825375641527268e-01  0.000000000000000e+00
9  1.173984503142341e+00  1.173984503142341e+00  1.173984503142341e+00  0.000000000000000e+00  7.193398004840579e-01  6.946583703084243e-01  0.000000000000000e+00
10  1.173984503142341e+00  1.173984503142341e+00  1.173984503142341e+00  0.000000000000000e+00  8.984111507982230e-01  4.391553302891963e-01  0.000000000000000e+00
11  1.173984503142341e+00  1.173984503142341e+00  1.173984503142341e+00  0.000000000000000e+00  9.900236543606925e-01  1.409012555171191e-01  0.000000000000000e+00
12  1.173984503142341e+00  1.173984503142341e+00  1.173984503142341e+00 -0.000000000000000e+00  9.852589878372886e-01 -1.710693627913601e-01  0.000000000000000e+00
13  1.173984503142341e+00  1.173984503142341e+00  1.173984503142341e+00 -0.000000000000000e+00  8.845809705934080e-01 -4.663866491056795e-01  0.000000000000000e+00
14  1.173984503142341e+00  1.173984503142341e+00  1.173984503142341e+00  0.000000000000000e+00  6.977904607698200e-01 -7.163019425205005e-01  0.000000000000000e+00
15  1.173984503142341e+00  1.173984503142341e+00  1.173984503142341e+00  0.000000000000000e+00 -4.430712143510990e-01  8.964864187557126e-01  0.000000000000000e+00
16  1.173984503142341e+00  1.173984503142341e+00  1.173984503142341e+00  0.000000000000000e+00 -1.452196123013818e-01  9.893994462314180e-01  0.000000000000000e+00
17  1.173984503142341e+00  1.173984503142341e+00  1.173984503142341e+00  0.000000000000000e+00  1.667687272690841e-01  9.859960403597217e-01  0.000000000000000e+00
18  1.173984503142341e+00  1.173984503142341e+00  1.173984503142341e+00  0.000000000000000e+00  4.625224955401697e-01  8.866075462792394e-01  0.000000000000000e+00
19  1.173984503142341e+00  1.173984503142341e+00  1.173984503142341e+00  0.000000000000000e+00  7.132504489142942e-01  7.009092645439621e-01  0.000000000000000e+00
20  1.173984503142341e+00  1.173984503142341e+00  1.173984503142341e+00  0.000000000000000e+00  8.945446448286388e-01  4.469786106833351e-01  0.000000000000000e+00
21  1.173984503142341e+00  1.173984503142341e+00  1.173984503142341e+00  0.000000000000000e+00  9.887563830433087e-01  1.495353302437715e-01  0.000000000000000e+00
22  1.173984503142341e+00  1.173984503142341e+00  1.173984503142341e+00 -0.000000000000000e+00  9.867143080562363e-01 -1.624649940051802e-01  0.000000000000000e+00
23  1.173984503142341e+00  1.173984503142341e+00  1.173984503142341e+00 -0.000000000000000e+00  8.886172457983054e-01 -4.586495290195274e-01  0.000000000000000e+00
24  1.173984503142341e+00  1.173984503142341e+00  1.173984503142341e+00  0.000000000000000e+00  7.040147246873646e-01 -7.101853753938997e-01  0.000000000000000e+00
25  1.173984503142341e+00  1.173984503142341e+00  1.173984503142341e+00  0.000000000000000e+00 -4.508775529986651e-01  8.925858122342837e-01  0.000000000000000e+00
26  1.173984503142341e+00  1.173984503142341e+00  1.173984503142341e+00  0.000000000000000e+00 -1.538482273085124e-01  9.880944909035918e-01  0.000000000000000e+00
27  1.173984503142341e+00  1.173984503142341e+00  1.173984503142341e+00  0.000000000000000e+00  1.581580859707744e-01  9.874138037530472e-01  0.000000000000000e+00
28  1.173984503142341e+00  1.173984503142341e+00  1.173984503142341e+00  0.000000000000000e+00  4.547678740184743e-01  8.906100048622388e-01  0.000000000000000e+00
29  1.173984503142341e+00  1.173984503142341e+00  1.173984503142341e+00  0.000000000000000e+00  7.071067811865476e-01  7.071067811865475e-01  0.000000000000000e+00
30  1.173984503142341e+00  1.173984503142341e+00  1.173984503142341e+00  7.071067811865476e-01 -0.000000000000000e+00  0.000000000000000e+00 -7.071067811865475e-01
31  1.173984503142341e+00  1.173984503142341e+00  1.173984503142341e+00  8.906099949282569e-01 -0.000000000000000e+00  0.000000000000000e+00 -4.547678934730224e-01
32  1.173984503142341e+00  1.173984503142341e+00  1.173984503142341e+00  9.874138093501371e-01 -0.000000000000000e+00  0.000000000000000e+00 -1.581580510269746e-01
33  1.173984503142341e+00  1.173984503142341e+00  1.173984503142341e+00  9.880944963635735e-01  0.000000000000000e+00  0.000000000000000e+00  1.538481922416252e-01
34  1.173984503142341e+00  1.173984503142341e+00  1.173984503142341e+00  8.925858197098029e-01  0.000000000000000e+00  0.000000000000000e+00  4.508775381996528e-01
35  1.173984503142341e+00  1.173984503142341e+00  1.173984503142341e+00  7.101853755289236e-01  0.000000000000000e+00  0.000000000000000e+00  7.040147245511572e-01
36  1.173984503142341e+00  1.173984503142341e+00  1.173984503142341e+00  4.586495673720831e-01  0.000000000000000e+00  0.000000000000000e+00  8.886172260030755e-01
37  1.173984503142341e+00  1.173984503142341e+00  1.173984503142341e+00  1.624649591876529e-01  0.000000000000000e+00  0.000000000000000e+00  9.867143137890290e-01
38  1.173984503142341e+00  1.173984503142341e+00  1.173984503142341e+00 -1.495353302437715e-01  0.000000000000000e+00  0.000000000000000e+00  9.887563830433087e-01
39  1.173984503142341e+00  1.173984503142341e+00  1.173984503142341e+00 -4.469785806703789e-01  0.000000000000000e+00  0.000000000000000e+00  8.945446598252619e-01
40  1.173984503142341e+00  1.173984503142341e+00  1.173984503142341e+00  7.009092642200586e-01  0.000000000000000e+00  0.000000000000000e+00 -7.132504492325932e-01
41  1.173984503142341e+00  1.173984503142341e+00  1.173984503142341e+00  8.866075659957380e-01 -0.000000000000000e+00  0.000000000000000e+00 -4.625224577456896e-01
42  1.173984503142341e+00  1.173984503142341e+00  1.173984503142341e+00  9.859960344926706e-01 -0.000000000000000e+00  0.000000000000000e+00 -1.667687619571743e-01
43  1.173984503142341e+00  1.173984503142341e+00  1.173984503142341e+00  9.893994358680590e-01  0.000000000000000e+00  0.000000000000000e+00  1.452196829082288e-01
44  1.173984503142341e+00  1.173984503142341e+00  1.173984503142341e+00  8.964864337934458e-01  0.000000000000000e+00  0.000000000000000e+00  4.430711839245583e-01
45  1.173984503142341e+00  1.173984503142341e+00  1.173984503142341e+00  7.163019431733856e-01  0.000000000000000e+00  0.000000000000000e+00  6.977904600996147e-01
46  1.173984503142341e+00  1.173984503142341e+00  1.173984503142341e+00  4.663866444513106e-01  0.000000000000000e+00  0.000000000000000e+00  8.845809730473784e-01
47  1.173984503142341e+00  1.173984503142341e+00  1.173984503142341e+00  1.710693973468651e-01  0.000000000000000e+00  0.000000000000000e+00  9.852589818374560e-01
48  1.173984503142341e+00  1.173984503142341e+00  1.173984503142341e+00 -1.409012555171191e-01  0.000000000000000e+00  0.000000000000000e+00  9.900236543606925e-01
49  1.173984503142341e+00  1.173984503142341e+00  1.173984503142341e+00 -4.391553302891963e-01  0.000000000000000e+00  0.000000000000000e+00  8.984111507982230e-01
50  1.173984503142341e+00  1.173984503142341e+00  1.173984503142341e+00  6.946583714984540e-01  0.000000000000000e+00  0.000000000000000e+00 -7.193397993348596e-01
51  1.173984503142341e+00  1.173984503142341e+00  1.173984503142341e+00  8.825375861363757e-01 -0.000000000000000e+00  0.000000000000000e+00 -4.702418622970304e-01
52  1.173984503142341e+00  1.173984503142341e+00  1.173984503142341e+00  9.845031795385070e-01 -0.000000000000000e+00  0.000000000000000e+00 -1.753667285392832e-01
53  1.173984503142341e+00  1.173984503142341e+00  1.173984503142341e+00  9.906290312789644e-01  0.000000000000000e+00  0.000000000000000e+00  1.365800951357869e-01
54  1.173984503142341e+00  1.173984503142341e+00  1.173984503142341e+00  9.003187814049993e-01  0.000000000000000e+00  0.000000000000000e+00  4.352310786805293e-01
55  1.173984503142341e+00  1.173984503142341e+00  1.173984503142341e+00  7.223639619682036e-01  0.000000000000000e+00  0.000000000000000e+00  6.915130558779058e-01
56  1.173984503142341e+00  1.173984503142341e+00  1.173984503142341e+00  4.740882121328102e-01  0.000000000000000e+00  0.000000000000000e+00  8.804773518476871e-01
57  1.173984503142341e+00  1.173984503142341e+00  1.173984503142341e+00  1.796607438419200e-01  0.000000000000000e+00  0.000000000000000e+00  9.837286298172725e-01
58  1.173984503142341e+00  1.173984503142341e+00  1.173984503142341e+00 -1.322564063245057e-01  0.000000000000000e+00  0.000000000000000e+00  9.912155381076951e-01

# Bond topology
Bonds

1  1  1  2
2  1  2  3
3  1  3  4
4  1  4  5
5  1  5  6
6  1  6  7
7  1  7  8
8  1  8  9
9  1  9  10
10  1  10  11
11  1  11  12
12  1  12  13
13  1  13  14
14  1  14  15
15  1  15  16
16  1  16  17
17  1  17  18
18  1  18  19
19  1  19  20
20  1  20  21
21  1  21  22
22  1  22  23
23  1  23  24
24  1  24  25
25  1  25  26
26  1  26  27
27  1  27  28
28  1  28  29
29  1  30  31
30  1  31  32
31  1  32  33
32  1  33  34
33  1  34  35
34  1  35  36
35  1  36  37
36  1  37  38
37  1  38  39
38  1  39  40
39  1  40  41
40  1  41  42
41  1  42  43
42  1  43  44
43  1  44  45
44  1  45  46
45  1  46  47
46  1  47  48
47  1  48  49
48  1  49  50
49  1  50  51
50  1  51  52
51  1  52  53
52  1  53  54
53  1  54  55
54  1  55  56
55  1  56  57
56  1  57  58
