LAMMPS (29 Sep 2021 - Update 2)
#The sequence-specific interactions can be turned on/off choosing between seqdep/seqav
variable seqspec index seqdep

#Specify the temperature of the system (0.1 in SU is equivalent to 300K)
variable tem equal 0.1


### Salt concentration  ####
############################
#Specify the salt concentration the system (1.0 in SU is equivalent to 1M [NaCl])
variable sc   equal 0.15

#Effective charge in elementary charges
variable qeff equal 0.815


### Stacking parameters ####
############################
#Temperature-independent coefficient in stacking strength
variable xi    equal 1.3523

#Coefficient of linear temperature dependence in stacking strength
variable kappa equal 2.6717


### Hbond parameters ####
#########################
#Energy: 1.0678 (between base pairs A-T and C-G) and 0 (all other pairs)
variable eps equal 1.0678


#5.- The damp parameter. The default value is 0.03. The accelerated value is 1.0
variable tdamp    equal 0.03
variable tdampacc equal 2.5


#6.- The total number of nucleotides in the system
variable N equal 147

variable seed equal 402987

#The times
variable dumpfreq   equal 100000
variable trestart   equal 10000000

#total running time
variable runtime1 equal 180000000
variable runtime2 equal 200000000



units lj

dimension 3

newton off

boundary  p p p

atom_style hybrid bond ellipsoid oxdna
WARNING: Write_data command requires newton on to preserve 3'->5' bond polarity (../atom_vec_oxdna.cpp:52)
WARNING: Atom style hybrid defines both, per-type and per-atom masses; both must be set, but only per-atom masses will be used (../atom_vec_hybrid.cpp:157)
atom_modify sort 0 1.0

# Pair interactions require lists of neighbours to be calculated
neighbor 2.0 bin
neigh_modify every 1 delay 0 check yes

restart ${trestart} oxDNA.equil.N${N}.Restart
restart 10000000 oxDNA.equil.N${N}.Restart
restart 10000000 oxDNA.equil.N147.Restart
read_data val5.lammps.txt
Reading data file ...
  orthogonal box = (0.0000000 0.0000000 0.0000000) to (34.000000 34.000000 34.000000)
  1 by 1 by 1 MPI processor grid
  reading atoms ...
  231 atoms
  reading velocities ...
  231 velocities
  231 ellipsoids
  scanning bonds ...
  2 = max bonds/atom
  reading bonds ...
  226 bonds
Finding 1-2 1-3 1-4 neighbors ...
  special bond factors lj:    0        0        0       
  special bond factors coul:  0        0        0       
     2 = max # of 1-2 neighbors
     2 = max # of 1-3 neighbors
     4 = max # of 1-4 neighbors
     6 = max # of special neighbors
  special bonds CPU = 0.000 seconds
  read_data CPU = 0.014 seconds
#read_restart data/oxDNA.equil.N${N}.Restart.20000000
#reset_timestep 0

set atom * mass 3.1575
Setting atom values ...
  231 settings made for mass

#Groups
group all type 1:4
231 atoms in group all


# oxDNA2 bond interactions - FENE backbone
bond_style oxdna2/fene
bond_coeff * 2.0 0.25 0.7564
special_bonds lj 0 1 1
Finding 1-2 1-3 1-4 neighbors ...
  special bond factors lj:    0        1        1       
  special bond factors coul:  0        0        0       
     2 = max # of 1-2 neighbors
     2 = max # of 1-3 neighbors
     4 = max # of 1-4 neighbors
     6 = max # of special neighbors
  special bonds CPU = 0.000 seconds

# oxDNA2 pair interactions
pair_style hybrid/overlay oxdna2/excv oxdna2/stk oxdna2/hbond oxdna2/xstk oxdna2/coaxstk oxdna2/dh
pair_coeff * * oxdna2/excv               2.0 0.7 0.675 2.0 0.515 0.5 2.0 0.33 0.32
pair_coeff * * oxdna2/stk     ${seqspec} ${tem} ${xi} ${kappa} 6.0 0.4 0.9 0.32 0.75 1.3 0 0.8 0.9 0 0.95 0.9 0 0.95 2.0 0.65 2.0 0.65
pair_coeff * * oxdna2/stk     seqdep ${tem} ${xi} ${kappa} 6.0 0.4 0.9 0.32 0.75 1.3 0 0.8 0.9 0 0.95 0.9 0 0.95 2.0 0.65 2.0 0.65
pair_coeff * * oxdna2/stk     seqdep 0.1 ${xi} ${kappa} 6.0 0.4 0.9 0.32 0.75 1.3 0 0.8 0.9 0 0.95 0.9 0 0.95 2.0 0.65 2.0 0.65
pair_coeff * * oxdna2/stk     seqdep 0.1 1.3523 ${kappa} 6.0 0.4 0.9 0.32 0.75 1.3 0 0.8 0.9 0 0.95 0.9 0 0.95 2.0 0.65 2.0 0.65
pair_coeff * * oxdna2/stk     seqdep 0.1 1.3523 2.6717 6.0 0.4 0.9 0.32 0.75 1.3 0 0.8 0.9 0 0.95 0.9 0 0.95 2.0 0.65 2.0 0.65
pair_coeff * * oxdna2/hbond   ${seqspec} 0.0 8.0 0.4 0.75 0.34 0.7 1.5 0 0.7 1.5 0 0.7 1.5 0 0.7 0.46 3.141592653589793 0.7 4.0 1.5707963267948966 0.45 4.0 1.5707963267948966 0.45
pair_coeff * * oxdna2/hbond   seqdep 0.0 8.0 0.4 0.75 0.34 0.7 1.5 0 0.7 1.5 0 0.7 1.5 0 0.7 0.46 3.141592653589793 0.7 4.0 1.5707963267948966 0.45 4.0 1.5707963267948966 0.45
pair_coeff 1 4 oxdna2/hbond   ${seqspec} ${eps} 8.0 0.4 0.75 0.34 0.7 1.5 0 0.7 1.5 0 0.7 1.5 0 0.7 0.46 3.141592653589793 0.7 4.0 1.5707963267948966 0.45 4.0 1.5707963267948966 0.45
pair_coeff 1 4 oxdna2/hbond   seqdep ${eps} 8.0 0.4 0.75 0.34 0.7 1.5 0 0.7 1.5 0 0.7 1.5 0 0.7 0.46 3.141592653589793 0.7 4.0 1.5707963267948966 0.45 4.0 1.5707963267948966 0.45
pair_coeff 1 4 oxdna2/hbond   seqdep 1.0678 8.0 0.4 0.75 0.34 0.7 1.5 0 0.7 1.5 0 0.7 1.5 0 0.7 0.46 3.141592653589793 0.7 4.0 1.5707963267948966 0.45 4.0 1.5707963267948966 0.45
pair_coeff 2 3 oxdna2/hbond   ${seqspec} ${eps} 8.0 0.4 0.75 0.34 0.7 1.5 0 0.7 1.5 0 0.7 1.5 0 0.7 0.46 3.141592653589793 0.7 4.0 1.5707963267948966 0.45 4.0 1.5707963267948966 0.45
pair_coeff 2 3 oxdna2/hbond   seqdep ${eps} 8.0 0.4 0.75 0.34 0.7 1.5 0 0.7 1.5 0 0.7 1.5 0 0.7 0.46 3.141592653589793 0.7 4.0 1.5707963267948966 0.45 4.0 1.5707963267948966 0.45
pair_coeff 2 3 oxdna2/hbond   seqdep 1.0678 8.0 0.4 0.75 0.34 0.7 1.5 0 0.7 1.5 0 0.7 1.5 0 0.7 0.46 3.141592653589793 0.7 4.0 1.5707963267948966 0.45 4.0 1.5707963267948966 0.45
pair_coeff * * oxdna2/xstk               47.5 0.575 0.675 0.495 0.655 2.25 0.791592653589793 0.58 1.7 1.0 0.68 1.7 1.0 0.68 1.5 0 0.65 1.7 0.875 0.68 1.7 0.875 0.68
pair_coeff * * oxdna2/coaxstk            58.5 0.4 0.6 0.22 0.58 2.0 2.891592653589793 0.65 1.3 0 0.8 0.9 0 0.95 0.9 0 0.95 40.0 3.116592653589793
pair_coeff * * oxdna2/dh                 ${tem} ${sc} ${qeff}
pair_coeff * * oxdna2/dh                 0.1 ${sc} ${qeff}
pair_coeff * * oxdna2/dh                 0.1 0.15 ${qeff}
pair_coeff * * oxdna2/dh                 0.1 0.15 0.815


# NVE ensemble
fix 1 all nve/asphere
fix 2 all langevin ${tem} ${tem} ${tdamp} ${seed} angmom 10
fix 2 all langevin 0.1 ${tem} ${tdamp} ${seed} angmom 10
fix 2 all langevin 0.1 0.1 ${tdamp} ${seed} angmom 10
fix 2 all langevin 0.1 0.1 0.03 ${seed} angmom 10
fix 2 all langevin 0.1 0.1 0.03 402987 angmom 10
timestep 1e-3


#Useful commands when running in parallel
#comm_style tiled
#fix 3 all balance 10000 1.1 rcb
#comm_modify cutoff 2.65

thermo 10000
thermo_style custom  step  temp

compute erot all erotate/asphere
compute ekin all ke
compute epot all pe
variable erot equal c_erot
variable ekin equal c_ekin
variable epot equal c_epot
variable etot equal c_erot+c_ekin+c_epot
fix 4 all print ${dumpfreq} "$(step)  ekin = ${ekin} |  erot = ${erot} | epot = ${epot} | etot = ${etot}" screen no append energy_total.txt
fix 4 all print 100000 "$(step)  ekin = ${ekin} |  erot = ${erot} | epot = ${epot} | etot = ${etot}" screen no append energy_total.txt

shell mkdir data
shell cd data

#compute shape all property/atom shapex shapey shapez
compute quat all property/atom quatw quati quatj quatk

dump out all custom ${dumpfreq} out.data id mol type x y z ix iy iz c_quat[1] c_quat[2] c_quat[3] c_quat[4]
dump out all custom 100000 out.data id mol type x y z ix iy iz c_quat[1] c_quat[2] c_quat[3] c_quat[4]
dump_modify out sort id
dump_modify out format line "%d %d %d %.6le %.6le %.6le %d %d %d %.6le %.6le %.6le %.6le"

run ${runtime1}
run 180000000
Neighbor list info ...
  update every 1 steps, delay 0 steps, check yes
  max neighbors/atom: 2000, page size: 100000
  master list distance cutoff = 6.2019411
  ghost atom cutoff = 6.2019411
  binsize = 3.1009705, bins = 11 11 11
  5 neighbor lists, perpetual/occasional/extra = 5 0 0
  (1) pair oxdna2/excv, perpetual
      attributes: half, newton off
      pair build: half/bin/newtoff
      stencil: full/bin/3d
      bin: standard
  (2) pair oxdna2/hbond, perpetual, copy from (1)
      attributes: half, newton off
      pair build: copy
      stencil: none
      bin: none
  (3) pair oxdna2/xstk, perpetual, copy from (1)
      attributes: half, newton off
      pair build: copy
      stencil: none
      bin: none
  (4) pair oxdna2/coaxstk, perpetual, copy from (1)
      attributes: half, newton off
      pair build: copy
      stencil: none
      bin: none
  (5) pair oxdna2/dh, perpetual, copy from (1)
      attributes: half, newton off
      pair build: copy
      stencil: none
      bin: none
WARNING: FENE bond too long: 0 28 27 1.6159644174179812 (../bond_oxdna_fene.cpp:209)
WARNING: FENE bond too long: 0 74 73 1.5480348367001466 (../bond_oxdna_fene.cpp:209)
WARNING: FENE bond too long: 0 73 74 1.5480348367001464 (../bond_oxdna_fene.cpp:209)
WARNING: FENE bond too long: 0 120 119 1.669998092685192 (../bond_oxdna_fene.cpp:209)
WARNING: FENE bond too long: 0 119 120 1.6699980926851947 (../bond_oxdna_fene.cpp:209)
WARNING: FENE bond too long: 0 167 166 1.5179906348803263 (../bond_oxdna_fene.cpp:209)
WARNING: FENE bond too long: 0 166 167 1.5179906348803232 (../bond_oxdna_fene.cpp:209)
WARNING: FENE bond too long: 0 213 212 1.7439798716467798 (../bond_oxdna_fene.cpp:209)
WARNING: FENE bond too long: 0 212 213 1.74397987164678 (../bond_oxdna_fene.cpp:209)
Per MPI rank memory allocation (min/avg/max) = 9.752 | 9.752 | 9.752 Mbytes
Step Temp 
       0            0 
WARNING: FENE bond too long: 1 28 27 1.6157675832723402 (../bond_oxdna_fene.cpp:209)
WARNING: FENE bond too long: 1 74 73 1.5479858876857218 (../bond_oxdna_fene.cpp:209)
WARNING: FENE bond too long: 1 73 74 1.5479858876857182 (../bond_oxdna_fene.cpp:209)
WARNING: FENE bond too long: 1 120 119 1.6698771468529445 (../bond_oxdna_fene.cpp:209)
WARNING: FENE bond too long: 1 119 120 1.6698771468529434 (../bond_oxdna_fene.cpp:209)
WARNING: FENE bond too long: 1 167 166 1.5179929200692917 (../bond_oxdna_fene.cpp:209)
WARNING: FENE bond too long: 1 166 167 1.5179929200692885 (../bond_oxdna_fene.cpp:209)
WARNING: FENE bond too long: 1 213 212 1.7438751208016046 (../bond_oxdna_fene.cpp:209)
WARNING: FENE bond too long: 1 212 213 1.7438751208016023 (../bond_oxdna_fene.cpp:209)
WARNING: FENE bond too long: 2 28 27 1.6152297799359263 (../bond_oxdna_fene.cpp:209)
WARNING: FENE bond too long: 2 74 73 1.5478369583624572 (../bond_oxdna_fene.cpp:209)
WARNING: FENE bond too long: 2 73 74 1.547836958362462 (../bond_oxdna_fene.cpp:209)
WARNING: FENE bond too long: 2 120 119 1.6692232539627467 (../bond_oxdna_fene.cpp:209)
WARNING: FENE bond too long: 2 119 120 1.6692232539627423 (../bond_oxdna_fene.cpp:209)
WARNING: FENE bond too long: 2 167 166 1.51696446636257 (../bond_oxdna_fene.cpp:209)
WARNING: FENE bond too long: 2 166 167 1.5169644663625723 (../bond_oxdna_fene.cpp:209)
WARNING: FENE bond too long: 2 213 212 1.7433692387559194 (../bond_oxdna_fene.cpp:209)
WARNING: FENE bond too long: 2 212 213 1.7433692387559185 (../bond_oxdna_fene.cpp:209)
WARNING: FENE bond too long: 3 28 27 1.6145081013317124 (../bond_oxdna_fene.cpp:209)
WARNING: FENE bond too long: 3 74 73 1.547374545813649 (../bond_oxdna_fene.cpp:209)
WARNING: FENE bond too long: 3 73 74 1.5473745458136479 (../bond_oxdna_fene.cpp:209)
WARNING: FENE bond too long: 3 120 119 1.66876356610802 (../bond_oxdna_fene.cpp:209)
WARNING: FENE bond too long: 3 119 120 1.6687635661080227 (../bond_oxdna_fene.cpp:209)
WARNING: FENE bond too long: 3 167 166 1.515573643471096 (../bond_oxdna_fene.cpp:209)
WARNING: FENE bond too long: 3 166 167 1.5155736434710978 (../bond_oxdna_fene.cpp:209)
WARNING: FENE bond too long: 3 213 212 1.7423238632557692 (../bond_oxdna_fene.cpp:209)
WARNING: FENE bond too long: 3 212 213 1.7423238632557687 (../bond_oxdna_fene.cpp:209)
WARNING: FENE bond too long: 4 28 27 1.6138570045212213 (../bond_oxdna_fene.cpp:209)
WARNING: FENE bond too long: 4 74 73 1.5464461133318457 (../bond_oxdna_fene.cpp:209)
WARNING: FENE bond too long: 4 73 74 1.5464461133318435 (../bond_oxdna_fene.cpp:209)
WARNING: FENE bond too long: 4 120 119 1.6679962398489112 (../bond_oxdna_fene.cpp:209)
WARNING: FENE bond too long: 4 119 120 1.6679962398489068 (../bond_oxdna_fene.cpp:209)
WARNING: FENE bond too long: 4 167 166 1.5144760313605143 (../bond_oxdna_fene.cpp:209)
WARNING: FENE bond too long: 4 166 167 1.5144760313605103 (../bond_oxdna_fene.cpp:209)
WARNING: FENE bond too long: 4 213 212 1.7409159622730255 (../bond_oxdna_fene.cpp:209)
WARNING: FENE bond too long: 4 212 213 1.7409159622730233 (../bond_oxdna_fene.cpp:209)
WARNING: FENE bond too long: 5 28 27 1.612535590420634 (../bond_oxdna_fene.cpp:209)
WARNING: FENE bond too long: 5 74 73 1.5456829325284525 (../bond_oxdna_fene.cpp:209)
WARNING: FENE bond too long: 5 73 74 1.5456829325284525 (../bond_oxdna_fene.cpp:209)
WARNING: FENE bond too long: 5 120 119 1.666609225759082 (../bond_oxdna_fene.cpp:209)
WARNING: FENE bond too long: 5 119 120 1.6666092257590845 (../bond_oxdna_fene.cpp:209)
WARNING: FENE bond too long: 5 167 166 1.5129980690914846 (../bond_oxdna_fene.cpp:209)
WARNING: FENE bond too long: 5 166 167 1.5129980690914866 (../bond_oxdna_fene.cpp:209)
WARNING: FENE bond too long: 5 213 212 1.7393221643299808 (../bond_oxdna_fene.cpp:209)
WARNING: FENE bond too long: 5 212 213 1.7393221643299805 (../bond_oxdna_fene.cpp:209)
WARNING: FENE bond too long: 6 28 27 1.611342444980758 (../bond_oxdna_fene.cpp:209)
WARNING: FENE bond too long: 6 74 73 1.5445153003341745 (../bond_oxdna_fene.cpp:209)
WARNING: FENE bond too long: 6 73 74 1.544515300334175 (../bond_oxdna_fene.cpp:209)
WARNING: FENE bond too long: 6 120 119 1.6650870721278193 (../bond_oxdna_fene.cpp:209)
WARNING: FENE bond too long: 6 119 120 1.6650870721278164 (../bond_oxdna_fene.cpp:209)
WARNING: FENE bond too long: 6 167 166 1.5111317087967162 (../bond_oxdna_fene.cpp:209)
WARNING: FENE bond too long: 6 166 167 1.5111317087967213 (../bond_oxdna_fene.cpp:209)
WARNING: FENE bond too long: 6 213 212 1.7377726967784326 (../bond_oxdna_fene.cpp:209)
WARNING: FENE bond too long: 6 212 213 1.7377726967784395 (../bond_oxdna_fene.cpp:209)
WARNING: FENE bond too long: 7 28 27 1.6104014822063946 (../bond_oxdna_fene.cpp:209)
WARNING: FENE bond too long: 7 74 73 1.5428009226219825 (../bond_oxdna_fene.cpp:209)
WARNING: FENE bond too long: 7 73 74 1.5428009226219803 (../bond_oxdna_fene.cpp:209)
WARNING: FENE bond too long: 7 120 119 1.6634580883322638 (../bond_oxdna_fene.cpp:209)
WARNING: FENE bond too long: 7 119 120 1.663458088332259 (../bond_oxdna_fene.cpp:209)
WARNING: FENE bond too long: 7 167 166 1.5091606898819043 (../bond_oxdna_fene.cpp:209)
WARNING: FENE bond too long: 7 166 167 1.509160689881899 (../bond_oxdna_fene.cpp:209)
WARNING: FENE bond too long: 7 213 212 1.7358708994790666 (../bond_oxdna_fene.cpp:209)
WARNING: FENE bond too long: 7 212 213 1.7358708994790717 (../bond_oxdna_fene.cpp:209)
WARNING: FENE bond too long: 8 28 27 1.6093588004173847 (../bond_oxdna_fene.cpp:209)
WARNING: FENE bond too long: 8 74 73 1.5409195147510055 (../bond_oxdna_fene.cpp:209)
WARNING: FENE bond too long: 8 73 74 1.5409195147510064 (../bond_oxdna_fene.cpp:209)
WARNING: FENE bond too long: 8 120 119 1.6618964939413778 (../bond_oxdna_fene.cpp:209)
WARNING: FENE bond too long: 8 119 120 1.6618964939413794 (../bond_oxdna_fene.cpp:209)
WARNING: FENE bond too long: 8 167 166 1.5069986669535762 (../bond_oxdna_fene.cpp:209)
WARNING: FENE bond too long: 8 166 167 1.506998666953577 (../bond_oxdna_fene.cpp:209)
WARNING: FENE bond too long: 8 213 212 1.7336994137517514 (../bond_oxdna_fene.cpp:209)
WARNING: FENE bond too long: 8 212 213 1.7336994137517456 (../bond_oxdna_fene.cpp:209)
WARNING: FENE bond too long: 9 28 27 1.6078083899319713 (../bond_oxdna_fene.cpp:209)
WARNING: FENE bond too long: 9 74 73 1.5386502360444505 (../bond_oxdna_fene.cpp:209)
WARNING: FENE bond too long: 9 73 74 1.538650236044448 (../bond_oxdna_fene.cpp:209)
WARNING: FENE bond too long: 9 120 119 1.6602591763256425 (../bond_oxdna_fene.cpp:209)
WARNING: FENE bond too long: 9 119 120 1.660259176325642 (../bond_oxdna_fene.cpp:209)
WARNING: FENE bond too long: 9 167 166 1.505051066402291 (../bond_oxdna_fene.cpp:209)
WARNING: FENE bond too long: 9 166 167 1.5050510664022956 (../bond_oxdna_fene.cpp:209)
WARNING: FENE bond too long: 9 213 212 1.731170191266421 (../bond_oxdna_fene.cpp:209)
WARNING: FENE bond too long: 9 212 213 1.7311701912664177 (../bond_oxdna_fene.cpp:209)
WARNING: FENE bond too long: 10 28 27 1.6056239957793403 (../bond_oxdna_fene.cpp:209)
WARNING: FENE bond too long: 10 74 73 1.535986777454285 (../bond_oxdna_fene.cpp:209)
WARNING: FENE bond too long: 10 73 74 1.5359867774542826 (../bond_oxdna_fene.cpp:209)
WARNING: FENE bond too long: 10 120 119 1.658484473112524 (../bond_oxdna_fene.cpp:209)
WARNING: FENE bond too long: 10 119 120 1.6584844731125241 (../bond_oxdna_fene.cpp:209)
WARNING: FENE bond too long: 10 167 166 1.502709818020461 (../bond_oxdna_fene.cpp:209)
WARNING: FENE bond too long: 10 166 167 1.5027098180204628 (../bond_oxdna_fene.cpp:209)
WARNING: FENE bond too long: 10 213 212 1.728549039825675 (../bond_oxdna_fene.cpp:209)
WARNING: Too many warnings: 1786 vs 100. All future warnings will be suppressed (../thermo.cpp:422)
   10000   0.10553653 
   20000    0.1011777 
   30000   0.10428382 
   40000  0.099480088 
   50000  0.091290135 
   60000   0.10682151 
   70000  0.095877322 
   80000    0.1036284 
   90000   0.10652191 
  100000   0.10340904 
  110000   0.09250189 
  120000   0.10007098 
  130000  0.095717013 
  140000   0.10445032 
  150000  0.094338808 
  160000   0.09855614 
  170000    0.1032447 
  180000  0.098152334 
  190000  0.096846994 
  200000  0.097111085 
  210000  0.098018533 
  220000   0.11118904 
  230000   0.10085527 
  240000  0.092774537 
  250000  0.099948976 
  260000  0.099851601 
  270000   0.10372916 
  280000  0.098956659 
  290000  0.096081445 
  300000  0.098085857 
  310000   0.10694238 
  320000    0.1047549 
  330000   0.10443579 
  340000   0.10809589 
  350000   0.10787319 
  360000  0.099996168 
  370000  0.094872047 
  380000   0.10416877 
  390000   0.11669172 
  400000  0.096154152 
  410000  0.098122017 
  420000  0.096837905 
  430000   0.10677218 
  440000   0.10485853 
  450000  0.099744514 
  460000  0.097976573 
  470000   0.11012513 
  480000  0.097161461 
  490000   0.10567035 
  500000  0.098327294 
  510000   0.09561701 
  520000   0.10245658 
  530000   0.10206519 
  540000    0.1077471 
  550000   0.10534212 
  560000  0.095221002 
  570000   0.10165997 
  580000  0.098050892 
  590000   0.10050506 
  600000  0.094778422 
  610000   0.10548585 
  620000  0.095189375 
  630000   0.10922578 
  640000   0.10306545 
  650000   0.10356774 
  660000  0.094701095 
  670000   0.10055542 
  680000   0.10460274 
  690000   0.10309916 
  700000   0.10570157 
  710000  0.096734503 
  720000  0.096842108 
  730000   0.10060227 
  740000   0.09998946 
  750000  0.098260255 
  760000   0.10350413 
  770000  0.097343689 
  780000   0.10253317 
  790000  0.096240004 
  800000   0.10916115 
  810000  0.098877808 
  820000   0.10215346 
  830000   0.10869822 
  840000    0.1027287 
  850000   0.10037833 
  860000   0.10037239 
  870000   0.10319336 
  880000   0.10064373 
  890000  0.099980303 
  900000    0.1058073 
  910000   0.10237938 
  920000   0.10896886 
  930000  0.095196519 
  940000  0.098903128 
  950000  0.094907728 
  960000   0.10246435 
  970000   0.10511399 
  980000   0.10639928 
  990000   0.10027543 
 1000000  0.093363259 
 1010000  0.098004573 
 1020000  0.097257618 
 1030000  0.095126565 
 1040000  0.093160721 
 1050000  0.089802023 
 1060000  0.097657972 
 1070000  0.096753667 
 1080000   0.10462815 
 1090000   0.10232932 
 1100000  0.099144392 
 1110000  0.092697047 
 1120000   0.10176789 
 1130000   0.10607198 
 1140000   0.10911197 
 1150000  0.097114484 
 1160000  0.093904269 
 1170000   0.10062002 
 1180000  0.099221728 
 1190000  0.098053079 
 1200000  0.082461359 
 1210000  0.098987376 
 1220000  0.095548196 
 1230000  0.096858141 
 1240000   0.10734699 
 1250000  0.093982644 
 1260000  0.089689728 
 1270000  0.097064062 
 1280000  0.092385027 
 1290000   0.10051249 
 1300000  0.096749045 
 1310000  0.091487239 
 1320000   0.10318132 
 1330000   0.10252012 
 1340000   0.10247069 
 1350000   0.11018181 
 1360000   0.10564883 
 1370000  0.099640197 
 1380000   0.10096662 
 1390000  0.093809994 
 1400000  0.096463682 
 1410000   0.10387824 
 1420000    0.1062167 
 1430000   0.10293537 
 1440000   0.10346625 
 1450000   0.10606725 
 1460000  0.098081116 
 1470000     0.103487 
 1480000   0.10028405 
 1490000   0.10009556 
 1500000    0.1039526 
 1510000   0.10773412 
 1520000  0.093049819 
 1530000   0.10475596 
 1540000   0.10995328 
 1550000  0.098936006 
 1560000  0.096731855 
 1570000    0.1016568 
 1580000   0.09674074 
 1590000  0.087287447 
 1600000  0.099233369 
 1610000  0.094096915 
 1620000  0.094629939 
 1630000   0.10422418 
 1640000   0.10523192 
 1650000   0.10883674 
 1660000  0.090919287 
 1670000   0.10538713 
 1680000    0.1069382 
 1690000   0.11021354 
 1700000   0.10678051 
 1710000  0.099697397 
 1720000   0.09737359 
 1730000   0.10210158 
 1740000   0.10341367 
 1750000  0.092834712 
 1760000  0.095948311 
 1770000   0.10853332 
 1780000  0.096777615 
 1790000     0.099718 
 1800000  0.099120365 
 1810000  0.099505188 
 1820000  0.090259978 
 1830000   0.10643522 
 1840000  0.097821735 
 1850000   0.10692537 
 1860000   0.10408953 
 1870000    0.1011419 
 1880000  0.091716338 
 1890000   0.10245732 
 1900000   0.10182192 
 1910000  0.094412459 
 1920000   0.10563102 
 1930000  0.099719621 
 1940000   0.11176407 
 1950000   0.10568375 
 1960000   0.10541984 
 1970000    0.1041608 
 1980000    0.1000101 
 1990000  0.095167776 
 2000000  0.090351715 
 2010000  0.094524705 
 2020000  0.099481906 
 2030000   0.10889246 
 2040000   0.09427339 
 2050000    0.1001825 
 2060000  0.090025802 
 2070000   0.10229876 
 2080000   0.10241544 
 2090000    0.1002142 
 2100000   0.10763982 
 2110000  0.092562158 
 2120000  0.097115423 
 2130000  0.093862508 
 2140000   0.09450752 
 2150000   0.10125746 
 2160000   0.10851546 
 2170000   0.10289138 
 2180000  0.097086598 
 2190000   0.10389201 
 2200000   0.10639752 
 2210000   0.10603398 
 2220000    0.1004745 
 2230000  0.096325323 
 2240000  0.093547305 
 2250000   0.10128789 
 2260000   0.10616765 
 2270000  0.088623392 
 2280000   0.10282875 
 2290000  0.098212661 
 2300000  0.093569403 
 2310000   0.10461007 
 2320000   0.11915149 
 2330000  0.097777576 
 2340000   0.10249002 
 2350000   0.10039628 
 2360000   0.10212765 
 2370000  0.095553624 
 2380000  0.096138807 
 2390000  0.098723558 
 2400000  0.096637206 
 2410000  0.094872554 
 2420000   0.10550561 
 2430000  0.094279007 
 2440000    0.1037536 
 2450000  0.099737075 
 2460000  0.091610106 
 2470000  0.098613666 
 2480000  0.094369805 
 2490000  0.088082195 
 2500000   0.10335132 
 2510000   0.10181202 
 2520000  0.099397555 
 2530000   0.10540274 
 2540000   0.10172182 
 2550000  0.096846066 
 2560000   0.11118529 
 2570000  0.093938477 
 2580000  0.090836525 
 2590000   0.10192996 
 2600000   0.10583979 
 2610000  0.096862543 
 2620000   0.10290766 
 2630000   0.10728838 
 2640000  0.099474609 
 2650000   0.10716239 
 2660000   0.10389543 
 2670000   0.10242949 
 2680000  0.095639039 
 2690000  0.091743671 
 2700000   0.09758932 
 2710000  0.099930124 
 2720000   0.10236461 
 2730000  0.096386935 
 2740000   0.10599915 
 2750000   0.10484088 
 2760000   0.10525419 
 2770000  0.091351182 
 2780000   0.10273911 
 2790000  0.089926315 
 2800000  0.099361772 
 2810000  0.099898672 
 2820000  0.099794873 
 2830000  0.091903115 
 2840000   0.10428018 
 2850000   0.10073332 
 2860000  0.099725205 
 2870000   0.10339626 
 2880000  0.098072291 
 2890000  0.095592601 
 2900000  0.093698642 
 2910000   0.09802578 
 2920000   0.10888105 
 2930000  0.097446463 
 2940000   0.10345822 
 2950000   0.11806984 
 2960000   0.10095854 
 2970000   0.09199923 
 2980000  0.091531501 
 2990000   0.10833078 
 3000000   0.10416805 
 3010000  0.098838708 
 3020000  0.091312636 
 3030000  0.097605822 
 3040000   0.10609689 
 3050000   0.10279252 
 3060000    0.1019835 
 3070000   0.10762618 
 3080000   0.10010488 
 3090000   0.10507664 
 3100000  0.096033045 
 3110000  0.092963652 
 3120000   0.09750068 
 3130000   0.10679182 
 3140000   0.11519251 
 3150000   0.10075363 
 3160000  0.095108436 
 3170000  0.097793672 
 3180000  0.096281562 
 3190000   0.10321072 
 3200000   0.09586634 
 3210000  0.088417389 
 3220000  0.093175145 
 3230000   0.10958087 
 3240000  0.095127192 
 3250000   0.10543111 
 3260000   0.10392299 
 3270000  0.096970628 
 3280000  0.095510584 
 3290000  0.096365506 
 3300000  0.097407554 
 3310000  0.099967111 
 3320000   0.10753234 
 3330000  0.090209219 
 3340000   0.10350615 
 3350000   0.10718228 
 3360000  0.092650222 
 3370000  0.092522358 
 3380000  0.097529824 
 3390000   0.10031147 
 3400000  0.088143835 
 3410000   0.10944218 
 3420000   0.11059801 
 3430000  0.092913817 
 3440000  0.093441517 
 3450000  0.095091374 
 3460000   0.10187332 
 3470000   0.10521318 
 3480000  0.098000442 
 3490000   0.09973185 
 3500000   0.10616327 
 3510000   0.10026225 
 3520000   0.11037286 
 3530000    0.1015686 
 3540000  0.098023553 
 3550000  0.094723801 
 3560000   0.11132069 
 3570000   0.09350216 
 3580000   0.10931045 
 3590000  0.099309599 
 3600000   0.10219078 
 3610000  0.099293454 
 3620000   0.10511861 
 3630000   0.10376348 
 3640000   0.10317651 
 3650000   0.11021995 
 3660000   0.10940702 
 3670000   0.10130286 
 3680000  0.098054676 
 3690000   0.10052879 
 3700000   0.10449781 
 3710000  0.091684118 
 3720000  0.093659963 
 3730000   0.11044656 
 3740000   0.11086879 
 3750000  0.092480023 
 3760000  0.084039299 
 3770000  0.096407029 
 3780000   0.10172522 
 3790000   0.10123783 
 3800000   0.10177427 
 3810000  0.096986773 
 3820000  0.098640321 
 3830000   0.10054182 
 3840000  0.099875851 
 3850000   0.10376488 
 3860000    0.1019272 
 3870000  0.095579724 
 3880000   0.10354126 
 3890000   0.10262108 
 3900000   0.10092755 
 3910000   0.11106891 
 3920000   0.10501063 
 3930000   0.10639356 
 3940000  0.086762564 
 3950000  0.094967292 
 3960000  0.092883208 
 3970000  0.094086838 
 3980000   0.10609961 
 3990000  0.095096718 
 4000000   0.10819815 
 4010000   0.10241615 
 4020000    0.1058911 
 4030000  0.090909385 
 4040000  0.091105311 
 4050000  0.098869794 
 4060000  0.095238607 
 4070000  0.095696503 
 4080000   0.10098125 
 4090000   0.10055647 
 4100000  0.094759865 
 4110000  0.098218728 
 4120000   0.10868622 
 4130000  0.098174739 
 4140000   0.10226672 
 4150000   0.09999926 
 4160000   0.10166899 
 4170000  0.093503352 
 4180000   0.10090304 
 4190000   0.10235719 
 4200000   0.10757013 
 4210000  0.096360305 
 4220000  0.099229768 
 4230000    0.1036676 
 4240000   0.10831306 
 4250000  0.096271266 
 4260000  0.089731324 
 4270000   0.10367129 
 4280000  0.096461453 
 4290000  0.095322105 
 4300000   0.10616423 
 4310000  0.097912138 
 4320000   0.10360393 
 4330000   0.09877712 
 4340000   0.10072827 
 4350000  0.098017962 
 4360000  0.099956837 
 4370000  0.099819424 
 4380000  0.091023242 
 4390000   0.10302858 
 4400000   0.10378471 
 4410000   0.10519566 
 4420000   0.10022796 
 4430000  0.093509279 
 4440000   0.10935525 
 4450000   0.10097365 
 4460000    0.1027968 
 4470000   0.10958816 
 4480000   0.10085368 
 4490000  0.096700846 
 4500000   0.11011742 
 4510000   0.10642824 
 4520000   0.10143961 
 4530000   0.10036489 
 4540000   0.10970016 
 4550000   0.10216274 
 4560000   0.10279527 
 4570000  0.097469986 
 4580000   0.09837589 
 4590000  0.095127113 
 4600000   0.10264127 
 4610000   0.10325692 
 4620000   0.10532326 
 4630000  0.094105696 
 4640000  0.090360051 
 4650000   0.10051003 
 4660000   0.10410162 
 4670000  0.095413443 
 4680000  0.094292164 
 4690000   0.10540302 
 4700000   0.10266334 
 4710000  0.098533268 
 4720000  0.097807115 
 4730000    0.1070762 
 4740000   0.10130827 
 4750000   0.11035125 
 4760000  0.099781201 
 4770000   0.10184398 
 4780000  0.098090148 
 4790000   0.10238567 
 4800000    0.1065546 
 4810000   0.10257797 
 4820000   0.09908238 
 4830000   0.10070902 
 4840000   0.10728435 
 4850000  0.099980803 
 4860000   0.10526459 
 4870000   0.10391356 
 4880000  0.091387594 
 4890000   0.10322242 
 4900000  0.099102048 
 4910000  0.098186287 
 4920000  0.094520804 
 4930000    0.1003037 
 4940000   0.09893513 
 4950000  0.098410726 
 4960000  0.098202763 
 4970000  0.098213734 
 4980000  0.097782745 
 4990000   0.10529397 
 5000000    0.1089953 
 5010000   0.10748476 
 5020000  0.094666555 
 5030000  0.096361775 
 5040000   0.10497155 
 5050000  0.099222021 
 5060000  0.092889977 
 5070000   0.10753157 
 5080000  0.091924713 
 5090000  0.097234093 
 5100000  0.098092112 
 5110000  0.081821018 
 5120000   0.10474975 
 5130000  0.098693155 
 5140000   0.10319101 
 5150000   0.10127672 
 5160000   0.10196259 
 5170000  0.090595765 
 5180000   0.10874699 
 5190000    0.1052006 
 5200000   0.10242468 
 5210000   0.10017415 
 5220000   0.09048283 
 5230000  0.096026909 
 5240000  0.093859399 
 5250000  0.099418022 
 5260000   0.10386076 
 5270000  0.096767623 
 5280000  0.098059953 
 5290000  0.095897029 
 5300000  0.099754123 
 5310000  0.093674491 
 5320000   0.10294939 
 5330000   0.10662203 
 5340000   0.10693608 
 5350000   0.10104217 
 5360000   0.10043151 
 5370000   0.11553989 
 5380000    0.1023135 
 5390000   0.11007614 
 5400000  0.098771736 
 5410000   0.10567386 
 5420000  0.096915234 
 5430000   0.10144045 
 5440000   0.10583964 
 5450000   0.10663346 
 5460000   0.10799919 
 5470000  0.094544053 
 5480000   0.10432364 
 5490000    0.1021079 
 5500000   0.10917735 
 5510000   0.10556765 
 5520000   0.11166315 
 5530000   0.10736378 
 5540000  0.098190284 
 5550000   0.10469001 
 5560000   0.10119659 
 5570000   0.10812234 
 5580000  0.094045927 
 5590000  0.088450459 
 5600000   0.09614302 
 5610000   0.11425672 
 5620000   0.10221411 
 5630000   0.10880184 
 5640000  0.092829999 
 5650000  0.095226291 
 5660000   0.10089299 
 5670000   0.10790791 
 5680000   0.10323914 
 5690000   0.10207186 
 5700000  0.099979406 
 5710000  0.097010888 
 5720000    0.1052208 
 5730000  0.098191986 
 5740000  0.097739146 
 5750000   0.10739318 
 5760000  0.094672802 
 5770000   0.10267715 
 5780000  0.096355211 
 5790000   0.10262194 
 5800000  0.095761936 
 5810000   0.10345849 
 5820000   0.10441958 
 5830000   0.10425204 
 5840000   0.09511813 
 5850000   0.10343563 
 5860000  0.096174433 
 5870000   0.10097837 
 5880000   0.10507429 
 5890000   0.10003259 
 5900000  0.097569508 
 5910000   0.10773958 
 5920000   0.10291175 
 5930000   0.10296603 
 5940000  0.091660998 
 5950000   0.09654844 
 5960000   0.10518019 
 5970000   0.10796636 
 5980000  0.096846897 
 5990000  0.095568463 
 6000000  0.089588047 
 6010000  0.099362683 
 6020000   0.10251145 
 6030000   0.10657293 
 6040000   0.10139619 
 6050000   0.10439288 
 6060000  0.094260816 
 6070000   0.09855867 
 6080000   0.10191845 
 6090000   0.10138286 
 6100000   0.10666803 
 6110000  0.096973896 
 6120000  0.097750975 
 6130000  0.097510652 
 6140000   0.10094633 
 6150000  0.097626692 
 6160000  0.099908698 
 6170000  0.094964827 
 6180000  0.095337655 
 6190000   0.10098701 
 6200000  0.090671969 
 6210000   0.10325177 
 6220000   0.10877714 
 6230000   0.09836453 
 6240000  0.097917361 
 6250000    0.1046653 
 6260000   0.10649455 
 6270000   0.10048917 
 6280000   0.10324032 
 6290000   0.10692417 
 6300000  0.096652668 
 6310000   0.10690744 
 6320000   0.09481063 
 6330000   0.10554961 
 6340000   0.10274635 
 6350000   0.10381744 
 6360000   0.10986818 
 6370000   0.10361612 
 6380000   0.09961435 
 6390000   0.10486358 
 6400000   0.10316556 
 6410000   0.10150372 
 6420000   0.10136482 
 6430000  0.099116026 
 6440000   0.10097608 
 6450000   0.10395498 
 6460000   0.10556023 
 6470000  0.097258809 
 6480000   0.11267482 
 6490000   0.10303666 
 6500000   0.10535991 
 6510000   0.10433939 
 6520000   0.10541988 
 6530000  0.096752432 
 6540000   0.09509956 
 6550000   0.09889944 
 6560000  0.088829679 
 6570000   0.10873656 
 6580000   0.10510283 
 6590000   0.10891814 
 6600000  0.098900951 
 6610000   0.10346248 
 6620000   0.10863191 
 6630000   0.10163951 
 6640000   0.10134535 
 6650000  0.097307982 
 6660000   0.10184923 
 6670000  0.098328547 
 6680000   0.10890117 
 6690000  0.097420207 
 6700000   0.10354931 
 6710000  0.095740003 
 6720000  0.094757329 
 6730000  0.092182045 
 6740000   0.10256072 
 6750000   0.10360462 
 6760000   0.10642222 
 6770000  0.097521979 
 6780000  0.097518689 
 6790000  0.098556763 
 6800000   0.10882192 
 6810000   0.11028886 
 6820000   0.10083509 
 6830000  0.097117006 
 6840000  0.093957246 
 6850000   0.10195378 
 6860000   0.10233706 
 6870000  0.098668605 
 6880000   0.10499773 
 6890000   0.09139135 
 6900000    0.1051693 
 6910000    0.1066688 
 6920000    0.1086656 
 6930000   0.10142098 
 6940000   0.10069754 
 6950000   0.10311378 
 6960000   0.10219752 
 6970000   0.10077399 
 6980000   0.10278422 
 6990000   0.10213958 
 7000000   0.10672468 
 7010000    0.1001907 
 7020000   0.10989744 
 7030000   0.10384079 
 7040000  0.091327459 
 7050000   0.10544412 
 7060000   0.10237981 
 7070000  0.094145285 
 7080000  0.096533889 
 7090000  0.093390496 
 7100000  0.099806524 
 7110000  0.098100161 
 7120000   0.10318453 
 7130000   0.10130356 
 7140000  0.093648704 
 7150000   0.10504338 
 7160000  0.097700659 
 7170000   0.09086641 
 7180000    0.1138145 
 7190000  0.094255426 
 7200000  0.097197129 
 7210000   0.10604026 
 7220000   0.10015379 
 7230000   0.10206333 
 7240000  0.093956327 
 7250000  0.099649889 
 7260000  0.098924712 
 7270000   0.09602103 
 7280000  0.098650475 
 7290000  0.099344504 
 7300000  0.096563886 
 7310000   0.10159389 
 7320000   0.10625099 
 7330000   0.10618498 
 7340000  0.093099809 
 7350000    0.1041103 
 7360000   0.10722537 
 7370000  0.087465847 
 7380000  0.099845154 
 7390000    0.1007033 
 7400000  0.091490338 
 7410000  0.096129294 
 7420000   0.10269151 
 7430000   0.09980444 
 7440000   0.10187441 
 7450000   0.10077259 
 7460000   0.10345519 
 7470000  0.098219828 
 7480000   0.10144062 
 7490000   0.10694297 
 7500000  0.096866178 
 7510000   0.10629922 
 7520000   0.10112204 
 7530000   0.10086304 
 7540000   0.10217699 
 7550000   0.10762413 
 7560000   0.10667718 
 7570000  0.089419904 
 7580000   0.10671922 
 7590000   0.10504164 
 7600000   0.09665363 
 7610000  0.098079622 
 7620000   0.10071973 
 7630000   0.09265565 
 7640000  0.098643741 
 7650000   0.10630243 
 7660000  0.093615601 
 7670000  0.099691683 
 7680000  0.098413942 
 7690000  0.095949164 
 7700000  0.099534827 
 7710000   0.10718263 
 7720000   0.10745964 
 7730000  0.095015612 
 7740000  0.097763225 
 7750000  0.092566416 
 7760000   0.10241834 
 7770000   0.10458651 
 7780000   0.10494042 
 7790000   0.10018467 
 7800000   0.10101706 
 7810000   0.10472916 
 7820000   0.10562865 
 7830000  0.094101519 
 7840000   0.11203478 
 7850000   0.10472618 
 7860000  0.094964813 
 7870000  0.097171317 
 7880000   0.10838651 
 7890000   0.10344953 
 7900000  0.096790461 
 7910000   0.10024116 
 7920000  0.095698247 
 7930000  0.098747523 
 7940000   0.10548755 
 7950000    0.1071313 
 7960000   0.10743605 
 7970000  0.088810471 
 7980000    0.1070877 
 7990000  0.099183003 
 8000000   0.10425652 
 8010000  0.097265265 
 8020000  0.096627801 
 8030000  0.099185925 
 8040000  0.092596678 
 8050000  0.099765238 
 8060000  0.099851057 
 8070000   0.10250847 
 8080000   0.10606104 
 8090000   0.10409335 
 8100000    0.1012369 
 8110000   0.10274209 
 8120000   0.10457935 
 8130000  0.098664795 
 8140000   0.09804669 
 8150000   0.10340378 
 8160000   0.09459831 
 8170000  0.098529056 
 8180000  0.094078091 
 8190000   0.10095958 
 8200000  0.088207894 
 8210000   0.10702908 
 8220000  0.096790799 
 8230000  0.097495529 
 8240000   0.10336094 
 8250000  0.091170193 
 8260000   0.10088993 
 8270000  0.099692671 
 8280000   0.10467535 
 8290000  0.098593132 
 8300000  0.099669478 
 8310000  0.091875143 
 8320000   0.10934317 
 8330000  0.092247195 
 8340000   0.09743935 
 8350000  0.095543561 
 8360000  0.097032174 
 8370000   0.11115044 
 8380000  0.099408406 
 8390000  0.099533853 
 8400000  0.096835203 
 8410000  0.097321215 
 8420000  0.099364722 
 8430000  0.098836071 
 8440000  0.097880053 
 8450000   0.10470113 
 8460000   0.10208385 
 8470000  0.098008694 
 8480000  0.094873372 
 8490000   0.09524455 
 8500000  0.097190648 
 8510000   0.10322859 
 8520000  0.096794891 
 8530000  0.099821843 
 8540000   0.09915896 
 8550000   0.10103689 
 8560000  0.096717454 
 8570000    0.1073247 
 8580000   0.10920109 
 8590000  0.094379244 
 8600000   0.10810576 
 8610000   0.10568824 
 8620000   0.10099785 
 8630000   0.10127367 
 8640000   0.10232813 
 8650000  0.096123598 
 8660000   0.09674996 
 8670000  0.098764637 
 8680000  0.092127425 
 8690000   0.10372848 
 8700000   0.10780433 
 8710000  0.097408604 
 8720000   0.10143118 
 8730000  0.094958394 
 8740000  0.097059157 
 8750000   0.10024293 
 8760000   0.10042761 
 8770000  0.099236175 
 8780000   0.10027409 
 8790000   0.10716346 
 8800000   0.10870007 
 8810000  0.094718162 
 8820000  0.098164813 
 8830000   0.10790791 
 8840000   0.10702166 
 8850000  0.091673456 
 8860000  0.091048568 
 8870000   0.10327178 
 8880000  0.092967048 
 8890000  0.086537961 
 8900000  0.095323861 
 8910000   0.10648013 
 8920000   0.10088484 
 8930000    0.1010869 
 8940000  0.092368564 
 8950000  0.098730074 
 8960000   0.10275445 
 8970000  0.091515011 
 8980000  0.097994412 
 8990000    0.1016904 
 9000000   0.10578578 
 9010000  0.091798417 
 9020000   0.11078051 
 9030000  0.097332608 
 9040000  0.091932098 
 9050000   0.10397085 
 9060000   0.10279068 
 9070000    0.1035247 
 9080000   0.10207915 
 9090000  0.097185991 
 9100000   0.10881118 
 9110000   0.10535128 
 9120000  0.097790139 
 9130000  0.098290757 
 9140000   0.10067732 
 9150000  0.094719504 
 9160000   0.10091281 
 9170000   0.10291494 
 9180000   0.10729739 
 9190000   0.11592353 
 9200000   0.10236382 
 9210000   0.10355028 
 9220000  0.092841355 
 9230000   0.10057485 
 9240000  0.096755918 
 9250000  0.096144041 
 9260000  0.096556346 
 9270000    0.1077999 
 9280000   0.10409626 
 9290000  0.098219375 
 9300000  0.096246806 
 9310000  0.096631328 
 9320000   0.10372841 
 9330000   0.10137812 
 9340000  0.098657173 
 9350000  0.096171425 
 9360000   0.09890829 
 9370000  0.097823099 
 9380000  0.096360896 
 9390000  0.090358683 
 9400000  0.095309094 
 9410000  0.094654174 
 9420000   0.10398048 
 9430000   0.10102224 
 9440000   0.11596594 
 9450000   0.10158532 
 9460000   0.10782018 
 9470000  0.094559357 
 9480000   0.11226436 
 9490000  0.094178058 
 9500000   0.10418464 
 9510000  0.097603476 
 9520000  0.092193548 
 9530000  0.096189846 
 9540000  0.099528119 
 9550000    0.1016299 
 9560000   0.10073457 
 9570000   0.10391736 
 9580000   0.09440872 
 9590000  0.089977552 
 9600000   0.10258935 
 9610000  0.096707742 
 9620000  0.093193101 
 9630000   0.10149319 
 9640000   0.09877799 
 9650000  0.098037644 
 9660000   0.10249256 
 9670000  0.092473605 
 9680000   0.10154675 
 9690000   0.11020305 
 9700000  0.095132878 
 9710000  0.097876316 
 9720000  0.099478557 
 9730000    0.1068694 
 9740000  0.093499956 
 9750000  0.096174659 
 9760000    0.1026204 
 9770000   0.10148407 
 9780000   0.10246596 
 9790000  0.099835122 
 9800000   0.10154827 
 9810000   0.10274791 
 9820000   0.10415283 
 9830000  0.096249158 
 9840000   0.10165493 
 9850000  0.095890919 
 9860000  0.094251143 
 9870000   0.10801306 
 9880000  0.094968666 
 9890000  0.093494861 
 9900000   0.10509761 
 9910000  0.097649454 
 9920000  0.097820246 
 9930000   0.10418633 
 9940000  0.092085367 
 9950000  0.096983635 
 9960000   0.10259021 
 9970000   0.10552711 
 9980000  0.096120024 
 9990000   0.10078672 
10000000   0.10056799 
10010000   0.10984913 
10020000  0.097286133 
10030000   0.10069037 
10040000   0.11273783 
10050000    0.0978621 
10060000   0.10423219 
10070000   0.10325753 
10080000  0.097193925 
10090000   0.10963211 
10100000  0.098052988 
10110000   0.10488655 
10120000  0.098728846 
10130000   0.10190391 
10140000   0.10999437 
10150000   0.10089841 
10160000   0.10597122 
10170000   0.10211521 
10180000   0.10571485 
10190000  0.087396921 
10200000   0.11349574 
10210000  0.095375158 
10220000  0.096454777 
10230000   0.09929769 
10240000  0.092571445 
10250000  0.098319238 
10260000   0.10123755 
10270000   0.10057418 
10280000   0.10256958 
10290000   0.10920137 
10300000  0.097561039 
10310000   0.10473248 
10320000  0.096487571 
10330000   0.10062532 
10340000   0.10505215 
10350000  0.090224874 
10360000  0.095064389 
10370000   0.10369779 
10380000  0.091871944 
10390000   0.10973219 
10400000   0.10064612 
10410000  0.099217602 
10420000   0.10594987 
10430000  0.095381458 
10440000  0.084941695 
10450000  0.091878056 
10460000   0.10644651 
10470000  0.094823879 
10480000    0.1058659 
10490000   0.10183472 
10500000   0.10153311 
10510000   0.10638375 
10520000   0.10643165 
10530000   0.10687671 
10540000   0.09401734 
10550000  0.096954969 
10560000   0.10718708 
10570000    0.1038267 
10580000   0.10603997 
10590000   0.10327876 
10600000   0.10501019 
10610000     0.109943 
10620000   0.10677216 
10630000   0.10426202 
10640000  0.091522295 
10650000   0.10432193 
10660000   0.10465742 
10670000   0.10286913 
10680000  0.093505007 
10690000  0.095304356 
10700000   0.10634489 
10710000  0.097971644 
10720000   0.10289256 
10730000  0.098786728 
10740000  0.094874602 
10750000   0.10702293 
10760000     0.106992 
10770000  0.098702323 
10780000   0.10092175 
10790000  0.095522415 
10800000   0.10172577 
10810000  0.093744678 
10820000  0.097417967 
10830000   0.10120074 
10840000  0.092353762 
10850000   0.10237349 
10860000  0.098921461 
10870000  0.096906171 
10880000   0.10218312 
10890000  0.093806401 
10900000  0.096846449 
10910000   0.11206749 
10920000   0.10295524 
10930000   0.10495123 
10940000  0.094468495 
10950000  0.095822524 
10960000   0.10364859 
10970000  0.099531097 
10980000   0.10241478 
10990000   0.10270335 
11000000  0.098857288 
11010000   0.10389774 
11020000  0.094928863 
11030000  0.096550292 
11040000  0.098096576 
11050000  0.093602846 
11060000  0.091047033 
11070000   0.10008011 
11080000   0.10393645 
11090000   0.10209846 
11100000   0.10221254 
11110000   0.10436482 
11120000  0.097195607 
11130000  0.096230258 
11140000  0.097658529 
11150000  0.092996353 
11160000   0.09882683 
11170000   0.10845575 
11180000   0.09254489 
11190000  0.096392424 
11200000   0.10185445 
11210000   0.10352066 
11220000  0.099635135 
11230000  0.096766594 
11240000   0.10483187 
11250000   0.10215718 
11260000  0.096986529 
11270000  0.097734555 
11280000   0.10109158 
11290000   0.10585343 
11300000    0.1138553 
11310000  0.094727964 
11320000   0.10393388 
11330000  0.098037171 
11340000   0.10323112 
11350000   0.11195595 
11360000   0.09623902 
11370000  0.098164648 
11380000   0.10011358 
11390000   0.10262908 
11400000   0.09961892 
11410000  0.090358824 
11420000  0.096168228 
11430000   0.10824781 
11440000  0.099459586 
11450000   0.10149258 
11460000   0.10248344 
11470000   0.10469835 
11480000  0.093223346 
11490000  0.095436493 
11500000  0.096460136 
11510000   0.10582044 
11520000   0.10873719 
11530000   0.10993086 
11540000   0.10536748 
11550000   0.10171996 
11560000  0.098826673 
11570000   0.10721324 
11580000  0.095772463 
11590000   0.09883345 
11600000   0.10385632 
11610000  0.098508317 
11620000  0.097174523 
11630000  0.099578648 
11640000   0.10658217 
11650000  0.096059448 
11660000  0.094759031 
11670000  0.093520324 
11680000   0.10140784 
11690000    0.1048639 
11700000   0.11107178 
11710000  0.093556533 
11720000  0.096068553 
11730000   0.10064168 
11740000   0.10451205 
11750000  0.097008259 
11760000  0.092945159 
11770000   0.10068037 
11780000  0.093183294 
11790000  0.095774081 
11800000  0.093146452 
11810000   0.10587434 
11820000  0.094321001 
11830000   0.10304369 
11840000  0.091928987 
11850000   0.09168494 
11860000  0.098163981 
11870000   0.10726586 
11880000  0.094869376 
11890000  0.098656432 
11900000  0.099524076 
11910000  0.097295487 
11920000   0.10081958 
11930000   0.10073334 
11940000   0.09998738 
11950000  0.094673055 
11960000   0.10256318 
11970000  0.096601052 
11980000  0.095248479 
11990000   0.10195994 
12000000   0.10710012 
12010000   0.10388214 
12020000  0.095917781 
12030000     0.110457 
12040000   0.10113393 
12050000  0.097091309 
12060000   0.10081245 
12070000  0.098093672 
12080000  0.099940573 
12090000   0.11019713 
12100000    0.1022488 
12110000  0.099566051 
12120000  0.099288564 
12130000   0.10044598 
12140000   0.10899882 
12150000  0.093617997 
12160000   0.10171151 
12170000   0.10078013 
12180000   0.10199147 
12190000   0.10206709 
12200000  0.095103488 
12210000  0.096478799 
12220000  0.096156614 
12230000  0.098227804 
12240000   0.10047979 
12250000  0.098426831 
12260000   0.10253234 
12270000   0.10546015 
12280000  0.099834498 
12290000  0.092849028 
12300000   0.11250693 
12310000   0.10036232 
12320000   0.10542929 
12330000   0.10653432 
12340000   0.10109016 
12350000  0.096425292 
12360000   0.11077392 
12370000  0.092542993 
12380000   0.10896794 
12390000   0.10873101 
12400000   0.11384749 
12410000   0.08970838 
12420000   0.10192284 
12430000   0.10136461 
12440000   0.10582202 
12450000   0.10006237 
12460000   0.10234836 
12470000   0.10629816 
12480000   0.10360766 
12490000   0.10742812 
12500000  0.097520381 
12510000   0.10094259 
12520000    0.1027936 
12530000  0.094849154 
12540000    0.1044834 
12550000  0.094105476 
12560000   0.10232664 
12570000   0.09964468 
12580000   0.10311603 
12590000   0.11018594 
12600000  0.096485237 
12610000   0.10929032 
12620000  0.093741147 
12630000  0.086052686 
12640000   0.11049429 
12650000    0.1025783 
12660000  0.099930939 
12670000  0.094859322 
12680000   0.10900466 
12690000   0.10640867 
12700000   0.10278409 
12710000  0.095469026 
12720000   0.11259528 
12730000  0.095240379 
12740000  0.099982062 
12750000   0.11195209 
12760000   0.10016295 
12770000   0.10520288 
12780000   0.10074834 
12790000  0.093986755 
12800000  0.095430977 
12810000   0.10109115 
12820000  0.097412073 
12830000  0.091582993 
12840000  0.095353011 
12850000  0.096471305 
12860000  0.098560362 
12870000  0.096619231 
12880000  0.097816256 
12890000  0.099354913 
12900000  0.093384762 
12910000   0.10728993 
12920000  0.095328688 
12930000  0.093790016 
12940000   0.10966819 
12950000   0.10092585 
12960000   0.10415947 
12970000  0.097931704 
12980000  0.091726154 
12990000  0.096655914 
13000000   0.09959853 
13010000  0.093309432 
13020000  0.095308876 
13030000   0.10399477 
13040000   0.10489872 
13050000  0.098534378 
13060000   0.11040484 
13070000  0.096355276 
13080000  0.097263484 
13090000  0.093266538 
13100000  0.097136155 
13110000   0.10365782 
13120000   0.10066829 
13130000  0.097391163 
13140000  0.097057307 
13150000   0.10572225 
13160000  0.094935402 
13170000  0.099413052 
13180000   0.11057981 
13190000   0.10057976 
13200000  0.098464703 
13210000  0.097307092 
13220000   0.10478526 
13230000  0.098737158 
13240000   0.10131048 
13250000   0.10861676 
13260000  0.088131179 
13270000   0.10138824 
13280000   0.10499642 
13290000   0.10086621 
13300000  0.094385408 
13310000  0.092648182 
13320000  0.095084717 
13330000   0.10971287 
13340000   0.10244429 
13350000   0.10097199 
13360000  0.090248655 
13370000   0.10606553 
13380000   0.10381633 
13390000   0.10712076 
13400000   0.10743542 
13410000  0.094257823 
13420000  0.098532661 
13430000   0.09201924 
13440000   0.10236586 
13450000    0.1071642 
13460000   0.10679929 
13470000   0.10151839 
13480000  0.095286429 
13490000   0.10035079 
13500000  0.099323395 
13510000   0.10677306 
13520000  0.096119232 
13530000   0.10363837 
13540000  0.095369194 
13550000   0.10490276 
13560000  0.094497424 
13570000  0.092862636 
13580000   0.10237954 
13590000  0.097396785 
13600000   0.09918932 
13610000   0.10008246 
13620000  0.099733715 
13630000  0.094949648 
13640000   0.10741977 
13650000  0.095502908 
13660000   0.10573252 
13670000  0.097954746 
13680000   0.10193976 
13690000   0.10187889 
13700000   0.10884988 
13710000    0.1049611 
13720000    0.1020252 
13730000     0.100863 
13740000  0.098012883 
13750000   0.10246969 
13760000  0.098443696 
13770000   0.10562913 
13780000  0.096200313 
13790000   0.10970082 
13800000  0.095680884 
13810000   0.10435391 
13820000  0.096922506 
13830000   0.10687671 
13840000  0.094636693 
13850000  0.098081484 
13860000   0.10022089 
13870000  0.099396487 
13880000   0.10855683 
13890000   0.08880632 
13900000  0.099491971 
13910000   0.10455785 
13920000  0.090551677 
13930000  0.099181016 
13940000   0.10553423 
13950000  0.095645339 
13960000   0.10116223 
13970000   0.10073456 
13980000   0.09955207 
13990000   0.10550581 
14000000  0.098396204 
14010000  0.095267382 
14020000  0.096780161 
14030000   0.10214176 
14040000   0.10220396 
14050000   0.09621346 
14060000  0.093741536 
14070000  0.090959776 
14080000   0.09988064 
14090000   0.11157932 
14100000   0.10275556 
14110000    0.1006531 
14120000   0.10145407 
14130000  0.096423074 
14140000   0.11356041 
14150000  0.098022595 
14160000  0.098809212 
14170000  0.090339602 
14180000   0.10044388 
14190000  0.095776978 
14200000   0.09988781 
14210000  0.098229791 
14220000  0.098755998 
14230000   0.10967563 
14240000    0.1075903 
14250000   0.10028412 
14260000   0.10317283 
14270000   0.09884485 
14280000   0.10170059 
14290000  0.089765847 
14300000  0.097396368 
14310000    0.1037194 
14320000   0.10528888 
14330000  0.095249043 
14340000  0.096024979 
14350000  0.095074048 
14360000   0.10877174 
14370000   0.09378584 
14380000  0.099286098 
14390000  0.096598528 
14400000   0.10740717 
14410000   0.10919509 
14420000  0.098443084 
14430000  0.095123382 
14440000   0.10614028 
14450000   0.10115329 
14460000   0.10104618 
14470000   0.09787892 
14480000  0.097097868 
14490000  0.098290453 
14500000   0.10769301 
14510000   0.10902091 
14520000   0.10312904 
14530000   0.09744804 
14540000  0.098563293 
14550000  0.097901495 
14560000  0.099887914 
14570000   0.10420011 
14580000   0.10290602 
14590000  0.094293151 
14600000   0.10635082 
14610000   0.10656769 
14620000  0.097617513 
14630000   0.10162216 
14640000   0.10342817 
14650000   0.10425088 
14660000   0.10113898 
14670000  0.095770011 
14680000  0.099671789 
14690000  0.099759709 
14700000   0.09642508 
14710000  0.098944842 
14720000   0.10431008 
14730000  0.095474269 
14740000   0.11133686 
14750000   0.10748511 
14760000   0.11639554 
14770000   0.10173068 
14780000   0.09412658 
14790000   0.10044769 
14800000   0.10687972 
14810000   0.10147824 
14820000   0.10534394 
14830000  0.094297331 
14840000   0.10262022 
14850000   0.10618918 
14860000    0.1029472 
14870000  0.092982529 
14880000  0.090026391 
14890000   0.10022517 
14900000   0.10050632 
14910000  0.095353145 
14920000    0.1048278 
14930000  0.094727709 
14940000  0.095038977 
14950000  0.098081952 
14960000   0.11528084 
14970000  0.097534695 
14980000   0.10165873 
14990000   0.10473125 
15000000   0.10211243 
15010000   0.10377697 
15020000   0.10221683 
15030000  0.099785442 
15040000  0.096815939 
15050000   0.10934241 
15060000   0.10530782 
15070000   0.10635805 
15080000   0.10431617 
15090000   0.10159653 
15100000   0.10545024 
15110000   0.10547426 
15120000   0.11009296 
15130000   0.10404539 
15140000   0.10473021 
15150000   0.10678045 
15160000  0.093952616 
15170000   0.10317413 
15180000   0.10018992 
15190000    0.1023057 
15200000  0.096010831 
15210000   0.10122998 
15220000   0.10699844 
15230000  0.097647249 
15240000      0.10497 
15250000   0.10085806 
15260000   0.10385681 
15270000  0.087895545 
15280000   0.11261537 
15290000   0.10660538 
15300000   0.10724606 
15310000  0.097512042 
15320000   0.10647727 
15330000  0.098779614 
15340000   0.10275938 
15350000  0.091774217 
15360000   0.10251177 
15370000   0.10148135 
15380000  0.090961682 
15390000   0.10600621 
15400000  0.094749992 
15410000  0.094874517 
15420000    0.1015153 
15430000  0.098693968 
15440000   0.10067266 
15450000  0.099719145 
15460000   0.10206889 
15470000   0.10440526 
15480000  0.090890872 
15490000   0.10354151 
15500000   0.10572452 
15510000   0.10693178 
15520000   0.10713639 
15530000   0.10629555 
15540000   0.10117989 
15550000  0.097173557 
15560000  0.094856823 
15570000   0.10483104 
15580000   0.10050079 
15590000   0.10038325 
15600000  0.095391379 
15610000   0.10127406 
15620000   0.10761728 
15630000   0.11146184 
15640000  0.097660514 
15650000   0.10436178 
15660000   0.10002369 
15670000   0.10519224 
15680000   0.10390543 
15690000  0.088464125 
15700000   0.10998554 
15710000   0.10376287 
15720000   0.10330055 
15730000  0.094401015 
15740000    0.1019256 
15750000   0.10196684 
15760000   0.10289442 
15770000  0.097337609 
15780000   0.10392507 
15790000   0.11069337 
15800000    0.1087802 
15810000     0.103131 
15820000  0.095662308 
15830000  0.098048585 
15840000   0.10597952 
15850000   0.10632621 
15860000   0.10774981 
15870000   0.10348948 
15880000  0.094276369 
15890000  0.097159621 
15900000   0.10471222 
15910000   0.10696019 
15920000  0.095588659 
15930000   0.10157488 
15940000  0.097426518 
15950000  0.093441799 
15960000   0.10571719 
15970000   0.10507848 
15980000   0.11174218 
15990000  0.091537523 
16000000  0.096412861 
16010000  0.098506509 
16020000  0.096324939 
16030000  0.097221685 
16040000   0.10042331 
16050000   0.11430046 
16060000  0.097543162 
16070000   0.10239731 
16080000   0.10191949 
16090000   0.10768021 
16100000   0.10030876 
16110000  0.094147815 
16120000  0.095067296 
16130000  0.099389136 
16140000   0.10455895 
16150000   0.10295916 
16160000   0.11583218 
16170000   0.09478526 
16180000   0.11339196 
16190000   0.09134505 
16200000   0.10508729 
16210000  0.094398985 
16220000  0.091944123 
16230000  0.099244183 
16240000  0.095482494 
16250000  0.094135809 
16260000   0.10863177 
16270000    0.1031777 
16280000  0.099519154 
16290000  0.096412006 
16300000  0.099276985 
16310000   0.10133229 
16320000   0.10715096 
16330000   0.09724681 
16340000   0.09478983 
16350000   0.10487617 
16360000  0.096814303 
16370000  0.094943444 
16380000   0.10694315 
16390000   0.11035839 
16400000  0.095777961 
16410000  0.097827551 
16420000  0.094289632 
16430000  0.093943553 
16440000   0.10212205 
16450000  0.098057528 
16460000  0.098673577 
16470000   0.10752344 
16480000  0.095542387 
16490000  0.094644503 
16500000  0.096171227 
16510000   0.10607042 
16520000   0.10109549 
16530000  0.099314351 
16540000  0.093733651 
16550000  0.098761269 
16560000   0.10153254 
16570000   0.10480523 
16580000  0.094924099 
16590000  0.098371348 
16600000  0.099678908 
16610000   0.10023265 
16620000   0.10846261 
16630000   0.10266459 
16640000  0.096533396 
16650000  0.091417406 
16660000  0.094537692 
16670000  0.095064596 
16680000  0.099823251 
16690000   0.10051292 
16700000   0.10493967 
16710000   0.10704628 
16720000  0.095945276 
16730000  0.095566922 
16740000   0.10743205 
16750000   0.10442071 
16760000   0.10610886 
16770000   0.10274354 
16780000  0.093340797 
16790000  0.097270084 
16800000   0.10160122 
16810000  0.087229995 
16820000   0.10438107 
16830000   0.10201723 
16840000   0.10537487 
16850000   0.10219179 
16860000   0.10464631 
16870000   0.10185441 
16880000  0.092436919 
16890000    0.1067582 
16900000  0.091066017 
16910000   0.10831272 
16920000  0.092255894 
16930000  0.092066863 
16940000   0.10432048 
16950000   0.10348413 
16960000  0.092695617 
16970000   0.10422961 
16980000   0.10450312 
16990000   0.10758536 
17000000   0.10185877 
17010000  0.096471015 
17020000   0.10045845 
17030000   0.11704144 
17040000   0.10265226 
17050000    0.1021633 
17060000  0.098894936 
17070000   0.10730234 
17080000  0.096887708 
17090000    0.1051054 
17100000   0.11287958 
17110000  0.096589384 
17120000   0.10625658 
17130000   0.10807635 
17140000   0.10679643 
17150000   0.10474912 
17160000  0.099353065 
17170000  0.093871973 
17180000  0.099684827 
17190000   0.10225409 
17200000   0.10102841 
17210000  0.099715502 
17220000   0.11435716 
17230000  0.097518751 
17240000  0.095903504 
17250000   0.11075391 
17260000   0.10899618 
17270000  0.096489767 
17280000   0.10207559 
17290000   0.10490238 
17300000  0.098142448 
17310000  0.097811218 
17320000   0.10182121 
17330000  0.092781252 
17340000   0.10704822 
17350000  0.093089303 
17360000   0.10183168 
17370000   0.10022105 
17380000   0.11276788 
17390000    0.1077966 
17400000   0.10429082 
17410000  0.091913079 
17420000   0.10067845 
17430000  0.096392828 
17440000   0.10697088 
17450000  0.094193092 
17460000   0.10268359 
17470000  0.096585116 
17480000   0.10500115 
17490000   0.10304288 
17500000   0.10707508 
17510000  0.098226216 
17520000  0.096202561 
17530000  0.087747864 
17540000  0.094852719 
17550000   0.10447342 
17560000   0.10510031 
17570000  0.092922618 
17580000   0.10455239 
17590000  0.098759785 
17600000  0.096369765 
17610000  0.099253099 
17620000   0.10946039 
17630000  0.099528619 
17640000   0.09632273 
17650000    0.0977322 
17660000  0.099355148 
17670000   0.10008149 
17680000  0.087823431 
17690000   0.10711108 
17700000  0.092226458 
17710000  0.094290136 
17720000    0.1045425 
17730000  0.098152049 
17740000  0.098054399 
17750000   0.10004854 
17760000   0.10785547 
17770000  0.093994399 
17780000  0.089942525 
17790000    0.1000823 
17800000   0.10044635 
17810000   0.09916347 
17820000   0.09808201 
17830000   0.10413867 
17840000   0.10477039 
17850000   0.10076433 
17860000  0.098175412 
17870000   0.10067016 
17880000   0.10604838 
17890000   0.11018839 
17900000    0.1085369 
17910000   0.10941782 
17920000  0.092769346 
17930000  0.099181497 
17940000   0.10100097 
17950000  0.096056931 
17960000  0.095648657 
17970000   0.10320885 
17980000   0.11018787 
17990000   0.10350587 
18000000   0.10701858 
18010000  0.094390328 
18020000   0.10232464 
18030000  0.095999909 
18040000  0.096617004 
18050000   0.10161313 
18060000  0.091574678 
18070000   0.10237558 
18080000  0.096944996 
18090000  0.096855566 
18100000    0.1032879 
18110000  0.098307604 
18120000    0.1064808 
18130000   0.10257404 
18140000   0.10000646 
18150000   0.10391928 
18160000   0.10099902 
18170000   0.10397156 
18180000  0.097606388 
18190000    0.1046793 
18200000  0.098836985 
18210000   0.10431962 
18220000  0.096542986 
18230000   0.10201424 
18240000   0.10451226 
18250000   0.10165365 
18260000   0.10839733 
18270000   0.10304925 
18280000   0.10543727 
18290000   0.10290855 
18300000   0.10730584 
18310000   0.10570578 
18320000   0.10098102 
18330000   0.10199993 
18340000   0.10392124 
18350000  0.092499698 
18360000   0.10338982 
18370000   0.09728537 
18380000   0.10195905 
18390000   0.10501481 
18400000  0.085343022 
18410000  0.097698947 
18420000    0.1017615 
18430000   0.10688448 
18440000   0.10426294 
18450000   0.10450532 
18460000  0.096486373 
18470000  0.098149759 
18480000    0.1000906 
18490000  0.099251662 
18500000  0.096050029 
18510000   0.10779617 
18520000   0.10708916 
18530000  0.098260224 
18540000  0.099349659 
18550000   0.10798454 
18560000   0.10324912 
18570000   0.10026723 
18580000  0.096576977 
18590000  0.098048269 
18600000   0.10087126 
18610000  0.094275079 
18620000   0.10232473 
18630000  0.093025127 
18640000  0.096275016 
18650000   0.09705905 
18660000   0.10376202 
18670000  0.096992816 
18680000    0.1018888 
18690000   0.10188479 
18700000   0.10113865 
18710000  0.099678291 
18720000   0.10142227 
18730000    0.1036964 
18740000    0.1012155 
18750000  0.097954404 
18760000   0.10296841 
18770000    0.1036084 
18780000  0.097204074 
18790000  0.092005554 
18800000   0.10449034 
18810000   0.10609716 
18820000    0.1007567 
18830000   0.10035582 
18840000  0.094238162 
18850000   0.10467204 
18860000   0.09871645 
18870000   0.10019462 
18880000   0.09292376 
18890000  0.096541061 
18900000  0.092461178 
18910000  0.097008755 
18920000   0.10180309 
18930000  0.098710901 
18940000  0.098502943 
18950000   0.10122878 
18960000  0.091369427 
18970000  0.093716906 
18980000  0.098010952 
18990000  0.096735375 
19000000   0.08961167 
19010000  0.090298845 
19020000   0.10092319 
19030000   0.11123886 
19040000  0.097710864 
19050000  0.093725045 
19060000   0.10291024 
19070000   0.10457814 
19080000  0.094748481 
19090000  0.095017949 
19100000   0.10563909 
19110000  0.095223346 
19120000  0.097024298 
19130000  0.089976364 
19140000   0.10290771 
19150000   0.10848682 
19160000   0.10302997 
19170000   0.10376362 
19180000  0.099231897 
19190000  0.095648357 
19200000   0.10290735 
19210000   0.09757076 
19220000   0.10811649 
19230000   0.10181878 
19240000   0.10737858 
19250000   0.10136749 
19260000   0.10813445 
19270000   0.10389601 
19280000  0.094788936 
19290000   0.10691357 
19300000  0.094177063 
19310000   0.10143197 
19320000   0.10511428 
19330000  0.099212931 
19340000  0.092319234 
19350000  0.098596104 
19360000  0.099665241 
19370000  0.096696135 
19380000   0.09765864 
19390000  0.098744604 
19400000  0.098640274 
19410000  0.092910757 
19420000  0.095617118 
19430000  0.097216528 
19440000   0.10021427 
19450000  0.087551408 
19460000    0.1033972 
19470000  0.098835827 
19480000   0.10161868 
19490000   0.10155786 
19500000  0.096498658 
19510000  0.096089803 
19520000  0.099185116 
19530000  0.098591812 
19540000   0.10098062 
19550000   0.10254059 
19560000   0.10609735 
19570000   0.10407483 
19580000  0.093927576 
19590000   0.10417206 
19600000   0.10459547 
19610000  0.091860419 
19620000   0.10399863 
19630000   0.09888671 
19640000  0.098481324 
19650000   0.10559384 
19660000   0.10257291 
19670000  0.090737922 
19680000   0.10154203 
19690000   0.10310501 
19700000    0.1028576 
19710000   0.10458576 
19720000   0.10104635 
19730000  0.091654928 
19740000   0.11026622 
19750000  0.097833092 
19760000    0.1043216 
19770000  0.094222933 
19780000  0.097579064 
19790000  0.098147932 
19800000  0.093018754 
19810000   0.10357973 
19820000  0.096307932 
19830000  0.095864098 
19840000   0.10375315 
19850000  0.099441203 
19860000   0.10026539 
19870000   0.09495939 
19880000  0.097585708 
19890000  0.099196833 
19900000  0.099504622 
19910000   0.11582804 
19920000   0.10364424 
19930000   0.10242551 
19940000   0.09810763 
19950000  0.098518413 
19960000   0.10181439 
19970000    0.1042851 
19980000  0.098661837 
19990000   0.10034033 
20000000  0.090114941 
20010000  0.095727157 
20020000  0.098080901 
20030000   0.10793466 
20040000   0.10179673 
20050000  0.097070527 
20060000  0.090025981 
20070000   0.09505773 
20080000   0.10127465 
20090000  0.097647902 
20100000   0.10160126 
20110000  0.094473057 
20120000    0.1049238 
20130000    0.1005227 
20140000   0.10013626 
20150000   0.09646706 
20160000   0.10413998 
20170000    0.0979727 
20180000   0.10143179 
20190000   0.10369313 
20200000   0.10715896 
20210000    0.1028711 
20220000   0.10859133 
20230000    0.1044124 
20240000   0.10632396 
20250000    0.1005714 
20260000  0.094335002 
20270000   0.10489497 
20280000  0.099696095 
20290000  0.096483198 
20300000   0.10079643 
20310000  0.097326932 
20320000    0.1011359 
20330000  0.093652244 
20340000   0.10014027 
20350000   0.10227165 
20360000   0.10676063 
20370000   0.10931473 
20380000  0.093073515 
20390000   0.10745643 
20400000    0.1075983 
20410000  0.095508224 
20420000   0.10412987 
20430000  0.096047691 
20440000  0.097915648 
20450000  0.091157934 
20460000  0.093080861 
20470000   0.10857744 
20480000  0.094595113 
20490000  0.095694833 
20500000   0.10050858 
20510000  0.094954659 
20520000   0.10032285 
20530000   0.10841774 
20540000   0.10423887 
20550000  0.095967129 
20560000   0.11202762 
20570000   0.10071056 
20580000   0.10558421 
20590000  0.094475567 
20600000    0.1056682 
20610000  0.094177446 
20620000  0.097314894 
20630000  0.097017546 
20640000  0.086893115 
20650000   0.10102911 
20660000   0.10941138 
20670000   0.10045511 
20680000  0.091872529 
20690000  0.098849816 
20700000  0.090896548 
20710000  0.091932788 
20720000  0.098163135 
20730000   0.09561027 
20740000   0.10815097 
20750000  0.098475729 
20760000  0.087205566 
20770000  0.099094908 
20780000   0.10600699 
20790000   0.10638752 
20800000   0.10066801 
20810000  0.099581666 
20820000   0.11081216 
20830000  0.085726531 
20840000  0.096134407 
20850000    0.1000629 
20860000   0.10169511 
20870000  0.092139929 
20880000   0.10151363 
20890000   0.10017031 
20900000   0.11077554 
20910000  0.094092806 
20920000  0.092476641 
20930000  0.098371785 
20940000  0.097441737 
20950000   0.09641138 
20960000   0.10144547 
20970000    0.1030443 
20980000   0.10166332 
20990000  0.097791355 
21000000  0.094209159 
21010000  0.098768279 
21020000  0.098752531 
21030000     0.094657 
21040000   0.10421642 
21050000  0.095522996 
21060000  0.089782035 
21070000   0.10571569 
21080000  0.096228106 
21090000   0.10618797 
21100000   0.10635538 
21110000   0.10382475 
21120000   0.10354843 
21130000   0.10793526 
21140000  0.095191415 
21150000    0.1005763 
21160000   0.10767917 
21170000   0.10422704 
21180000  0.094137749 
21190000   0.11143272 
21200000   0.10231301 
21210000   0.10009839 
21220000  0.093368438 
21230000    0.1022305 
21240000  0.097904068 
21250000  0.099719591 
21260000  0.093429178 
21270000   0.10563822 
21280000   0.10971608 
21290000   0.09472576 
21300000   0.10060067 
21310000  0.094831908 
21320000  0.099050401 
21330000  0.096505762 
21340000  0.094914726 
21350000   0.10346476 
21360000   0.10488892 
21370000   0.10071662 
21380000   0.10493829 
21390000  0.090254164 
21400000  0.095337985 
21410000  0.095633165 
21420000  0.093536298 
21430000   0.10099288 
21440000  0.098125838 
21450000  0.094612019 
21460000  0.095110255 
21470000  0.099869572 
21480000  0.095238265 
21490000    0.1047562 
21500000   0.10467182 
21510000   0.10942884 
21520000   0.10795403 
21530000   0.10242076 
21540000    0.1086167 
21550000   0.10596257 
21560000   0.10054755 
21570000   0.10085624 
21580000  0.091876545 
21590000  0.099021575 
21600000   0.10298525 
21610000  0.097449654 
21620000   0.10219427 
21630000     0.101347 
21640000  0.099156202 
21650000    0.1019513 
21660000   0.10158193 
21670000  0.095320817 
21680000  0.089253895 
21690000   0.09487463 
21700000   0.10373734 
21710000  0.090672012 
21720000  0.098463722 
21730000  0.093973388 
21740000   0.10512394 
21750000  0.096550499 
21760000   0.10079332 
21770000  0.098242213 
21780000   0.10402534 
21790000  0.096690389 
21800000   0.11298978 
21810000   0.10101905 
21820000   0.10248999 
21830000  0.094290194 
21840000  0.096135126 
21850000  0.098858135 
21860000   0.10180839 
21870000  0.098938076 
21880000   0.10674149 
21890000   0.09703685 
21900000   0.10056524 
21910000   0.10879214 
21920000  0.097488377 
21930000    0.1054588 
21940000  0.099764901 
21950000   0.10316654 
21960000  0.093709926 
21970000  0.097428644 
21980000   0.10443131 
21990000   0.10059975 
22000000   0.10328011 
22010000   0.10371616 
22020000   0.11338389 
22030000  0.098245631 
22040000   0.10286353 
22050000   0.10374852 
22060000   0.10055776 
22070000   0.10542645 
22080000   0.10247909 
22090000   0.10337615 
22100000  0.095234239 
22110000   0.10275658 
22120000   0.11593598 
22130000  0.095879196 
22140000   0.10624312 
22150000    0.1123121 
22160000  0.097517282 
22170000  0.098676558 
22180000   0.10938067 
22190000   0.10509204 
22200000  0.098693582 
22210000  0.099727687 
22220000  0.094110972 
22230000   0.10075789 
22240000   0.10123818 
22250000   0.10415352 
22260000  0.099394666 
22270000   0.10606545 
22280000  0.087585873 
22290000  0.095379904 
22300000   0.10156074 
22310000  0.097093594 
22320000  0.099611406 
22330000  0.094727766 
22340000  0.095097623 
22350000  0.095071957 
22360000   0.10572098 
22370000   0.10120942 
22380000  0.099447761 
22390000   0.10159881 
22400000  0.090593981 
22410000  0.096010855 
22420000   0.10217692 
22430000    0.0942445 
22440000  0.097405056 
22450000   0.10106226 
22460000   0.10362301 
22470000  0.099918739 
22480000  0.095970047 
22490000   0.10853683 
22500000   0.10230516 
22510000   0.10557454 
22520000   0.10465747 
22530000  0.097215645 
22540000  0.099603854 
22550000  0.099956513 
22560000  0.098927981 
22570000  0.098130808 
22580000   0.10110125 
22590000   0.10032827 
22600000   0.10081691 
22610000   0.09293608 
22620000    0.1017829 
22630000   0.10523101 
22640000   0.10129442 
22650000   0.09387768 
22660000   0.10911716 
22670000  0.093618561 
22680000   0.10922249 
22690000   0.10202398 
22700000  0.096300458 
22710000  0.094807071 
22720000  0.097179146 
22730000   0.10931156 
22740000    0.1073885 
22750000   0.11410523 
22760000  0.089072299 
22770000  0.097855796 
22780000  0.094331461 
22790000  0.094723015 
22800000  0.094391492 
22810000  0.097452484 
22820000   0.10546559 
22830000   0.10962668 
22840000    0.1007118 
22850000   0.10663697 
22860000  0.099112427 
22870000   0.10417443 
22880000  0.098896286 
22890000    0.1048466 
22900000   0.10559235 
22910000   0.10605784 
22920000  0.097606997 
22930000  0.096236331 
22940000  0.099077248 
22950000   0.10229503 
22960000   0.10116116 
22970000  0.095387412 
22980000   0.11072956 
22990000   0.10377904 
23000000  0.096780815 
23010000  0.097441213 
23020000  0.095816735 
23030000     0.103474 
23040000   0.10454888 
23050000  0.098955428 
23060000  0.094318604 
23070000  0.099046962 
23080000   0.09257679 
23090000   0.10818008 
23100000  0.092398623 
23110000   0.10057463 
23120000   0.10107438 
23130000   0.09473176 
23140000   0.10027645 
23150000   0.10300272 
23160000   0.10327622 
23170000  0.095001777 
23180000  0.089957543 
23190000     0.100682 
23200000  0.094351174 
23210000  0.094379893 
23220000  0.091967417 
23230000  0.099818418 
23240000    0.1005091 
23250000   0.10239629 
23260000    0.1029266 
23270000   0.10553062 
23280000    0.1002328 
23290000  0.098406139 
23300000  0.098859906 
23310000   0.11653436 
23320000  0.099175798 
23330000   0.10149081 
23340000  0.091702604 
23350000   0.10886671 
23360000  0.091667034 
23370000    0.1038542 
23380000  0.097309318 
23390000   0.10678357 
23400000  0.096975342 
23410000    0.1124309 
23420000  0.093348114 
23430000  0.099733619 
23440000   0.10820757 
23450000   0.10410155 
23460000   0.10309662 
23470000   0.10439738 
23480000    0.1028816 
23490000   0.10299238 
23500000   0.10207243 
23510000  0.098975722 
23520000  0.095949687 
23530000   0.10665203 
23540000  0.097906496 
23550000   0.10439459 
23560000   0.10375171 
23570000  0.097289407 
23580000  0.099542026 
23590000  0.098090249 
23600000  0.094955191 
23610000   0.10090388 
23620000  0.087876619 
23630000   0.10480712 
23640000   0.10392981 
23650000  0.090435183 
23660000  0.094442233 
23670000   0.10850762 
23680000  0.098537987 
23690000   0.10096997 
23700000  0.088143771 
23710000   0.10772597 
23720000   0.10367275 
23730000   0.10122207 
23740000  0.090960222 
23750000  0.099229554 
23760000   0.10506047 
23770000   0.10267948 
23780000   0.10126462 
23790000  0.089945238 
23800000   0.10091385 
23810000  0.086707907 
23820000   0.10398115 
23830000   0.09575205 
23840000   0.10083118 
23850000  0.097557904 
23860000  0.098149412 
23870000   0.10909424 
23880000   0.10672663 
23890000    0.1026972 
23900000  0.094713369 
23910000    0.1048096 
23920000   0.10031305 
23930000  0.089639164 
23940000   0.10023778 
23950000  0.099231278 
23960000  0.093550212 
23970000   0.11050803 
23980000   0.11655273 
23990000  0.092807406 
24000000   0.10897713 
24010000  0.091886388 
24020000  0.098402988 
24030000   0.10400842 
24040000   0.10524275 
24050000  0.097297175 
24060000    0.0914144 
24070000   0.10078248 
24080000  0.098276311 
24090000  0.095800803 
24100000   0.10260013 
24110000   0.10018044 
24120000   0.10586615 
24130000  0.097143323 
24140000   0.10317089 
24150000   0.10196343 
24160000  0.093692123 
24170000  0.095408499 
24180000   0.10041241 
24190000  0.096279593 
24200000  0.095783579 
24210000  0.088451454 
24220000   0.10424332 
24230000   0.10523371 
24240000  0.088494709 
24250000   0.10165805 
24260000   0.10940622 
24270000   0.10198263 
24280000  0.092219664 
24290000   0.10234601 
24300000   0.10558808 
24310000   0.08963257 
24320000   0.10561382 
24330000   0.10043112 
24340000  0.095859182 
24350000  0.096250881 
24360000  0.092890476 
24370000   0.11051886 
24380000   0.09827398 
24390000  0.098599965 
24400000   0.10762462 
24410000  0.095445312 
24420000  0.096247947 
24430000   0.10085616 
24440000  0.093552441 
24450000  0.088311387 
24460000  0.091063534 
24470000   0.10059808 
24480000   0.10029429 
24490000   0.10398364 
24500000   0.10951156 
24510000  0.094025624 
24520000   0.10797857 
24530000  0.096474319 
24540000   0.10526717 
24550000   0.10678628 
24560000   0.09554521 
24570000   0.10064545 
24580000    0.1113291 
24590000   0.11062051 
24600000     0.104111 
24610000   0.10359767 
24620000  0.098797091 
24630000   0.09494912 
24640000  0.086688429 
24650000  0.098689152 
24660000    0.1007418 
24670000  0.099976818 
24680000   0.10295766 
24690000  0.096640724 
24700000  0.096918799 
24710000   0.10381943 
24720000  0.098118637 
24730000   0.10287527 
24740000  0.095551999 
24750000   0.10557536 
24760000    0.1005425 
24770000   0.10971692 
24780000   0.10349169 
24790000   0.09738161 
24800000   0.10170143 
24810000  0.094772056 
24820000  0.092580594 
24830000   0.09748534 
24840000  0.094273849 
24850000  0.099215414 
24860000   0.10591604 
24870000    0.1009176 
24880000   0.10432891 
24890000   0.10203503 
24900000   0.10419747 
24910000  0.092093854 
24920000   0.10063953 
24930000   0.10119434 
24940000  0.097865628 
24950000   0.10146299 
24960000  0.097688581 
24970000   0.10268303 
24980000   0.09365078 
24990000  0.091644299 
25000000   0.10107172 
25010000   0.11026973 
25020000   0.10823594 
25030000   0.09008197 
25040000   0.10061302 
25050000   0.09623794 
25060000  0.097067313 
25070000   0.10049351 
25080000   0.10658687 
25090000  0.097013616 
25100000  0.097129125 
25110000   0.10750101 
25120000   0.10028782 
25130000   0.10431501 
25140000   0.10658616 
25150000   0.10575564 
25160000   0.11379012 
25170000  0.099786321 
25180000   0.10577894 
25190000  0.099385765 
25200000  0.092179056 
25210000   0.10192608 
25220000  0.099590406 
25230000  0.098300592 
25240000   0.10098812 
25250000   0.10632403 
25260000  0.094826701 
25270000  0.096981099 
25280000  0.099100212 
25290000   0.10998806 
25300000  0.098592186 
25310000   0.09507908 
25320000   0.10712148 
25330000   0.10376379 
25340000   0.10822618 
25350000   0.10283318 
25360000   0.10388077 
25370000  0.096628334 
25380000   0.11029584 
25390000  0.095518624 
25400000   0.10955346 
25410000   0.09062975 
25420000    0.1002304 
25430000  0.096716691 
25440000  0.095232214 
25450000  0.098676974 
25460000   0.10020552 
25470000  0.096383503 
25480000   0.10307336 
25490000   0.10595367 
25500000  0.099437423 
25510000   0.10328548 
25520000  0.093850632 
25530000   0.10242091 
25540000   0.10243336 
25550000  0.098941793 
25560000   0.10371721 
25570000   0.10959088 
25580000  0.095481236 
25590000  0.099048691 
25600000   0.10336963 
25610000  0.090873797 
25620000  0.098250595 
25630000  0.096292901 
25640000  0.098278916 
25650000   0.10406268 
25660000   0.10567411 
25670000   0.10264016 
25680000   0.10765833 
25690000  0.099448106 
25700000   0.10708734 
25710000  0.098759669 
25720000  0.090945932 
25730000  0.098311758 
25740000  0.096084636 
25750000   0.10020749 
25760000    0.1012493 
25770000   0.10405381 
25780000   0.09472492 
25790000   0.10129163 
25800000   0.10591641 
25810000   0.10589203 
25820000  0.092797758 
25830000  0.096237216 
25840000  0.092727975 
25850000   0.10146256 
25860000   0.10244191 
25870000  0.093347946 
25880000   0.10168616 
25890000    0.1008351 
25900000   0.10220039 
25910000   0.08629824 
25920000   0.10466702 
25930000   0.09886608 
25940000   0.10526003 
25950000  0.096420924 
25960000  0.098072895 
25970000   0.10341047 
25980000   0.10194893 
25990000  0.099882821 
26000000  0.092102231 
26010000  0.098704481 
26020000  0.098224435 
26030000   0.10110412 
26040000   0.10390789 
26050000   0.10837121 
26060000  0.095997289 
26070000  0.096073795 
26080000  0.099912898 
26090000   0.10683242 
26100000   0.10336534 
26110000   0.10061157 
26120000  0.094708059 
26130000  0.091705796 
26140000   0.10520404 
26150000   0.10213554 
26160000  0.095471757 
26170000  0.094302309 
26180000   0.10604444 
26190000    0.1129577 
26200000  0.097933537 
26210000  0.093998298 
26220000   0.10087132 
26230000  0.096194779 
26240000   0.10063361 
26250000   0.10532878 
26260000  0.095513004 
26270000   0.10281605 
26280000  0.094276002 
26290000  0.093500526 
26300000  0.099175331 
26310000  0.096160161 
26320000   0.10343056 
26330000   0.10065031 
26340000  0.099343605 
26350000    0.1002581 
26360000  0.099630012 
26370000   0.10182233 
26380000   0.10441367 
26390000   0.10305152 
26400000   0.09727601 
26410000   0.10089625 
26420000   0.10515434 
26430000   0.10666896 
26440000   0.10450966 
26450000   0.10255803 
26460000  0.097023654 
26470000  0.094171955 
26480000   0.10149145 
26490000  0.095659673 
26500000   0.09990685 
26510000  0.091335038 
26520000  0.098908095 
26530000  0.092896484 
26540000  0.095281659 
26550000  0.099800575 
26560000   0.10332417 
26570000   0.10499042 
26580000   0.10295812 
26590000   0.10577389 
26600000   0.10390598 
26610000   0.10879075 
26620000   0.10589485 
26630000  0.095165962 
26640000   0.10198558 
26650000  0.083679455 
26660000  0.098128794 
26670000  0.093654566 
26680000   0.10456016 
26690000   0.11070574 
26700000  0.088810708 
26710000  0.098112624 
26720000  0.097561167 
26730000   0.10000056 
26740000  0.096394475 
26750000   0.10134045 
26760000  0.095970529 
26770000   0.10087004 
26780000   0.09719533 
26790000   0.10383897 
26800000   0.09517385 
26810000  0.088430453 
26820000   0.10663006 
26830000  0.098149425 
26840000   0.10967282 
26850000  0.092559469 
26860000   0.11117618 
26870000   0.09814321 
26880000  0.098360158 
26890000  0.091754518 
26900000   0.09416629 
26910000  0.099585741 
26920000   0.10279635 
26930000   0.10565327 
26940000  0.096888525 
26950000   0.10404213 
26960000  0.098240272 
26970000   0.10329809 
26980000   0.10476474 
26990000   0.10265079 
27000000  0.093748701 
27010000  0.090327858 
27020000   0.10386633 
27030000   0.10202813 
27040000  0.097252966 
27050000    0.1025268 
27060000  0.093129759 
27070000  0.097197054 
27080000   0.10873841 
27090000   0.10039657 
27100000   0.10290811 
27110000   0.10693747 
27120000   0.10137155 
27130000   0.09950479 
27140000   0.10352774 
27150000   0.10231508 
27160000  0.099866192 
27170000  0.099605908 
27180000  0.093177925 
27190000   0.10511744 
27200000  0.096397447 
27210000   0.10462577 
27220000   0.10699413 
27230000   0.10745781 
27240000   0.10527703 
27250000  0.095173631 
27260000   0.10113079 
27270000     0.110708 
27280000   0.10725793 
27290000  0.092793057 
27300000  0.095649588 
[...]
372190000   0.10241262 
372200000   0.10856633 
372210000   0.10205811 
372220000   0.10199306 
372230000   0.10469258 
372240000   0.10004763 
372250000  0.095137396 
372260000  0.099983598 
372270000   0.09362813 
372280000  0.099202049 
372290000   0.11362378 
372300000   0.10651376 
372310000   0.11114445 
372320000  0.099773418 
372330000    0.1082659 
372340000  0.089820745 
372350000  0.094468492 
372360000  0.091658837 
372370000   0.10305041 
372380000  0.099970664 
372390000   0.08700749 
372400000   0.10725992 
372410000   0.10780292 
372420000  0.093602573 
372430000   0.11008435 
372440000   0.10817416 
372450000  0.089043619 
372460000   0.11173174 
372470000   0.10708583 
372480000   0.09771327 
372490000    0.1062856 
372500000   0.10000244 
372510000   0.10291236 
372520000   0.10511114 
372530000   0.10572174 
372540000  0.091048747 
372550000   0.10303826 
372560000  0.097877068 
372570000   0.10815208 
372580000   0.10651181 
372590000   0.10159116 
372600000  0.097171031 
372610000    0.1030186 
372620000   0.10525287 
372630000   0.10040682 
372640000  0.099408417 
372650000    0.1033999 
372660000  0.097701939 
372670000  0.097215988 
372680000   0.10262142 
372690000  0.094529445 
372700000   0.10471587 
372710000   0.11274516 
372720000   0.11111819 
372730000   0.09857801 
372740000  0.098305558 
372750000  0.095397128 
372760000   0.10517307 
372770000   0.10846304 
372780000   0.10091162 
372790000  0.099360449 
372800000  0.093094568 
372810000   0.10627843 
372820000   0.10167568 
372830000   0.10609561 
372840000   0.09476714 
372850000   0.10929224 
372860000  0.087465141 
372870000  0.084875913 
372880000  0.096718094 
372890000   0.10393175 
372900000   0.10127655 
372910000   0.09544678 
372920000  0.096657805 
372930000   0.10564478 
372940000   0.09750272 
372950000   0.10078627 
372960000   0.10555193 
372970000   0.10513299 
372980000   0.11575175 
372990000   0.10320921 
373000000  0.099413001 
373010000  0.093219248 
373020000    0.1003387 
373030000   0.09087622 
373040000  0.099380559 
373050000  0.098376762 
373060000  0.092514213 
373070000  0.092417128 
373080000    0.1000841 
373090000  0.099297368 
373100000   0.10245502 
373110000   0.10572948 
373120000  0.094935465 
373130000   0.10767631 
373140000  0.094503533 
373150000    0.1026572 
373160000   0.09258794 
373170000  0.088897067 
373180000   0.09587733 
373190000  0.095803985 
373200000   0.10075664 
373210000     0.103497 
373220000  0.098797806 
373230000  0.095441858 
373240000  0.099342338 
373250000  0.097846925 
373260000  0.099894721 
373270000    0.1027588 
373280000   0.10023705 
373290000   0.10279576 
373300000   0.10008911 
373310000  0.096754224 
373320000   0.09983934 
373330000  0.093794642 
373340000   0.10070689 
373350000  0.098086532 
373360000   0.10124754 
373370000  0.097031752 
373380000   0.10154172 
373390000   0.10712704 
373400000   0.11055598 
373410000  0.099049881 
373420000  0.098618598 
373430000   0.11759869 
373440000   0.10603293 
373450000  0.089858474 
373460000   0.10572788 
373470000  0.098499141 
373480000   0.10769531 
373490000  0.089385448 
373500000  0.099164007 
373510000   0.10483287 
373520000   0.10821815 
373530000   0.10567246 
373540000    0.1095155 
373550000   0.09942885 
373560000   0.09803098 
373570000   0.10253757 
373580000   0.10145611 
373590000  0.096590354 
373600000   0.10162636 
373610000   0.10069728 
373620000  0.099953686 
373630000   0.10108669 
373640000   0.10930467 
373650000  0.094468796 
373660000  0.092482166 
373670000  0.097082989 
373680000  0.096490128 
373690000  0.092080474 
373700000  0.099976749 
373710000   0.10621314 
373720000   0.10084927 
373730000   0.10163668 
373740000   0.10439476 
373750000   0.10669237 
373760000     0.102006 
373770000    0.0978904 
373780000    0.1075699 
373790000  0.091223161 
373800000  0.097036563 
373810000   0.09424816 
373820000  0.091744234 
373830000   0.10462506 
373840000  0.098090731 
373850000  0.098237451 
373860000    0.1042661 
373870000   0.10056105 
373880000   0.10014086 
373890000  0.088229361 
373900000   0.09971124 
373910000   0.10482718 
373920000   0.10667124 
373930000  0.098067243 
373940000  0.098960366 
373950000   0.10370152 
373960000    0.1130701 
373970000   0.10309209 
373980000   0.10067329 
373990000  0.097874469 
374000000   0.10637501 
374010000  0.095207589 
374020000   0.10233812 
374030000   0.11515087 
374040000   0.10442308 
374050000  0.094082659 
374060000   0.10916821 
374070000  0.098549787 
374080000  0.097839156 
374090000   0.10857873 
374100000   0.10045039 
374110000   0.10411873 
374120000  0.098147082 
374130000  0.098103922 
374140000  0.096032588 
374150000   0.10396263 
374160000   0.09331954 
374170000   0.11264034 
374180000   0.09893768 
374190000   0.10376244 
374200000  0.097535713 
374210000  0.098853871 
374220000   0.10983355 
374230000  0.096494068 
374240000  0.093682708 
374250000  0.097808275 
374260000   0.09559291 
374270000  0.099271821 
374280000   0.10074434 
374290000   0.10436514 
374300000    0.1074319 
374310000   0.10056622 
374320000   0.10270386 
374330000  0.096971762 
374340000   0.10313835 
374350000   0.10233245 
374360000  0.098012705 
374370000  0.099039309 
374380000  0.098210864 
374390000   0.10393176 
374400000  0.090521494 
374410000   0.09763836 
374420000   0.10660785 
374430000   0.10198929 
374440000   0.09469525 
374450000   0.10503354 
374460000     0.088708 
374470000  0.095721009 
374480000   0.10018046 
374490000  0.098355533 
374500000  0.092902176 
374510000  0.095945399 
374520000   0.10813199 
374530000   0.10618716 
374540000   0.10901498 
374550000   0.10658023 
374560000    0.1049135 
374570000   0.10413599 
374580000   0.10080257 
374590000   0.10844895 
374600000   0.10492699 
374610000   0.10301643 
374620000  0.091534235 
374630000   0.10090149 
374640000   0.10572389 
374650000   0.10013651 
374660000   0.10765054 
374670000  0.098576786 
374680000   0.10457399 
374690000  0.091661549 
374700000  0.095943138 
374710000  0.092426873 
374720000  0.094004222 
374730000   0.11127715 
374740000   0.10904907 
374750000   0.10861531 
374760000  0.099570354 
374770000   0.10418813 
374780000   0.10602337 
374790000  0.098886418 
374800000   0.10353917 
374810000  0.098390973 
374820000  0.095561419 
374830000   0.10121376 
374840000  0.097839604 
374850000   0.10774928 
374860000  0.098713241 
374870000   0.10172783 
374880000  0.093587442 
374890000   0.11230478 
374900000  0.099701324 
374910000   0.10733777 
374920000  0.097310733 
374930000  0.097663131 
374940000  0.097644077 
374950000  0.097693026 
374960000  0.095097641 
374970000    0.0965256 
374980000  0.090372307 
374990000   0.10125328 
375000000  0.095873335 
375010000   0.10729213 
375020000   0.10222817 
375030000   0.10517154 
375040000   0.10284693 
375050000   0.10697768 
375060000  0.099734307 
375070000   0.10454629 
375080000   0.10116167 
375090000   0.10336851 
375100000  0.092859809 
375110000  0.089449525 
375120000   0.10394501 
375130000   0.10478391 
375140000   0.10739585 
375150000   0.10747778 
375160000  0.095068109 
375170000   0.10543619 
375180000   0.10625818 
375190000   0.10095453 
375200000   0.10245536 
375210000   0.10668565 
375220000   0.10422519 
375230000   0.10090863 
375240000   0.09848885 
375250000   0.10495469 
375260000  0.098965873 
375270000   0.09589048 
375280000   0.10161511 
375290000   0.11155798 
375300000  0.093819699 
375310000  0.098160168 
375320000  0.091125821 
375330000  0.098090739 
375340000   0.10042429 
375350000   0.09663852 
375360000  0.096675962 
375370000  0.099828648 
375380000   0.10141112 
375390000  0.098785614 
375400000    0.1020631 
375410000  0.097502236 
375420000  0.094485607 
375430000   0.10330518 
375440000  0.098249333 
375450000  0.087684219 
375460000   0.10382653 
375470000   0.11194231 
375480000   0.10555303 
375490000  0.097122229 
375500000  0.099306446 
375510000   0.10039124 
375520000   0.10202797 
375530000   0.10056383 
375540000  0.093419244 
375550000   0.10240106 
375560000  0.098665971 
375570000   0.10346834 
375580000  0.099209099 
375590000  0.095987144 
375600000    0.1107722 
375610000    0.1094525 
375620000  0.094001904 
375630000   0.10407867 
375640000  0.099943892 
375650000  0.093647923 
375660000   0.10449508 
375670000   0.10991438 
375680000  0.096341061 
375690000  0.093224953 
375700000  0.098905641 
375710000  0.097364466 
375720000  0.097448488 
375730000   0.10145402 
375740000   0.10452498 
375750000    0.1018549 
375760000  0.097731715 
375770000  0.098233824 
375780000  0.096630733 
375790000  0.091585446 
375800000   0.10171632 
375810000   0.10285432 
375820000   0.10306551 
375830000  0.092851071 
375840000   0.10420874 
375850000    0.1015402 
375860000  0.093330996 
375870000  0.097327828 
375880000   0.10193265 
375890000   0.10077044 
375900000   0.10234776 
375910000   0.10422461 
375920000  0.099358558 
375930000  0.093138603 
375940000   0.10952436 
375950000  0.088359512 
375960000   0.10237781 
375970000  0.090657005 
375980000    0.1037526 
375990000  0.096520096 
376000000   0.10297588 
376010000  0.098960761 
376020000   0.10034298 
376030000   0.10301461 
376040000   0.10217894 
376050000   0.10312974 
376060000  0.088964496 
376070000   0.10552754 
376080000   0.10717773 
376090000    0.1041397 
376100000  0.098636355 
376110000   0.10024235 
376120000   0.09962201 
376130000  0.097409663 
376140000  0.096452937 
376150000   0.10230616 
376160000   0.10596593 
376170000  0.099174872 
376180000   0.10307418 
376190000   0.11148254 
376200000   0.10176862 
376210000  0.094794492 
376220000   0.10127012 
376230000  0.093969233 
376240000   0.10242243 
376250000   0.10302938 
376260000   0.10447795 
376270000    0.1009705 
376280000  0.099100268 
376290000  0.094408483 
376300000   0.10058026 
376310000  0.089577732 
376320000  0.095858287 
376330000  0.091344588 
376340000  0.098858082 
376350000   0.10702049 
376360000   0.10481359 
376370000   0.10202156 
376380000   0.10093199 
376390000   0.10553891 
376400000  0.097128468 
376410000  0.097687529 
376420000  0.099130577 
376430000  0.091887075 
376440000    0.1136601 
376450000  0.089067919 
376460000  0.087457967 
376470000  0.096980691 
376480000  0.094175249 
376490000  0.093959645 
376500000  0.099033647 
376510000  0.096838756 
376520000  0.087439287 
376530000  0.099481252 
376540000  0.098568642 
376550000   0.10346439 
376560000   0.10212767 
376570000   0.10093755 
376580000  0.098996661 
376590000  0.096351314 
376600000  0.099259805 
376610000  0.098543177 
376620000  0.095176396 
376630000  0.097232016 
376640000   0.10154798 
376650000  0.098583998 
376660000   0.10532508 
376670000   0.10005475 
376680000   0.10652506 
376690000   0.10258263 
376700000   0.10487727 
376710000  0.099261308 
376720000    0.0954813 
376730000   0.10409863 
376740000   0.10609453 
376750000  0.099696246 
376760000  0.090356456 
376770000   0.10697734 
376780000  0.096797056 
376790000  0.095060013 
376800000   0.10859102 
376810000  0.098440326 
376820000   0.10536893 
376830000  0.097926612 
376840000  0.095444524 
376850000  0.094152512 
376860000  0.092801522 
376870000   0.10626859 
376880000  0.099957525 
376890000   0.10088298 
376900000  0.092693187 
376910000  0.098815366 
376920000  0.098108846 
376930000  0.091026432 
376940000  0.096729939 
376950000   0.10232477 
376960000   0.10264483 
376970000   0.10047946 
376980000    0.0892514 
376990000  0.095566171 
377000000   0.10652284 
377010000     0.104651 
377020000   0.10177029 
377030000   0.10283503 
377040000   0.10091398 
377050000  0.091328087 
377060000  0.096177757 
377070000   0.10514548 
377080000   0.10785454 
377090000  0.087162805 
377100000   0.10583696 
377110000   0.09998362 
377120000    0.1088978 
377130000  0.096935674 
377140000   0.10452477 
377150000   0.10496214 
377160000  0.097259079 
377170000   0.10428516 
377180000   0.10037338 
377190000   0.10311678 
377200000   0.10695737 
377210000   0.11113044 
377220000   0.10319411 
377230000   0.10209242 
377240000  0.096708867 
377250000   0.11024486 
377260000   0.08754976 
377270000  0.094678724 
377280000  0.092220299 
377290000    0.1054654 
377300000   0.10319303 
377310000  0.094136884 
377320000  0.098675245 
377330000   0.10212605 
377340000   0.10131236 
377350000   0.10859766 
377360000    0.1044026 
377370000   0.10239839 
377380000  0.098303166 
377390000   0.10317588 
377400000  0.093630492 
377410000   0.09168362 
377420000  0.096030396 
377430000   0.10083926 
377440000   0.10064169 
377450000   0.10079474 
377460000   0.11251625 
377470000  0.098134109 
377480000  0.097673122 
377490000  0.098431314 
377500000  0.096566525 
377510000  0.097693077 
377520000   0.10007596 
377530000  0.097279575 
377540000   0.10139749 
377550000   0.10664801 
377560000  0.091924252 
377570000   0.10829833 
377580000  0.095237305 
377590000  0.097793603 
377600000  0.096169051 
377610000   0.11297622 
377620000   0.10369534 
377630000   0.10477601 
377640000   0.10417532 
377650000   0.10392549 
377660000  0.092757453 
377670000  0.099185846 
377680000  0.098303645 
377690000   0.10155469 
377700000   0.10113215 
377710000  0.098679811 
377720000    0.1029678 
377730000  0.099298155 
377740000   0.09461274 
377750000   0.10275616 
377760000  0.098822246 
377770000   0.09967912 
377780000  0.096007311 
377790000  0.099275781 
377800000  0.095776012 
377810000  0.098043368 
377820000   0.10289561 
377830000    0.1010851 
377840000   0.10051488 
377850000  0.096116878 
377860000   0.10090847 
377870000   0.10645618 
377880000   0.10546653 
377890000   0.10178184 
377900000   0.10039032 
377910000   0.10717778 
377920000   0.10242995 
377930000    0.1057301 
377940000   0.10628699 
377950000   0.11050106 
377960000   0.09658315 
377970000   0.10166939 
377980000    0.0935811 
377990000  0.093365237 
378000000  0.093448184 
378010000   0.09440748 
378020000   0.10650194 
378030000  0.099247142 
378040000  0.090970736 
378050000  0.093611629 
378060000  0.093968478 
378070000   0.10209683 
378080000  0.096112284 
378090000  0.097323973 
378100000  0.096408836 
378110000   0.10680254 
378120000   0.10177222 
378130000   0.10891783 
378140000   0.10729203 
378150000   0.10303709 
378160000   0.09262957 
378170000  0.099339994 
378180000   0.11147646 
378190000   0.11015165 
378200000   0.10346389 
378210000   0.10170755 
378220000   0.08769671 
378230000  0.095309847 
378240000   0.10894556 
378250000   0.10244722 
378260000  0.097486689 
378270000   0.10379156 
378280000   0.11476446 
378290000  0.094932196 
378300000   0.10023543 
378310000   0.10585021 
378320000  0.092131758 
378330000   0.11738984 
378340000   0.11195413 
378350000  0.098819975 
378360000  0.096753754 
378370000   0.10768115 
378380000  0.096469037 
378390000  0.086691607 
378400000  0.094052685 
378410000   0.10018523 
378420000   0.10247421 
378430000   0.10472376 
378440000   0.10099432 
378450000  0.098610782 
378460000   0.10077101 
378470000  0.097839088 
378480000  0.096898144 
378490000   0.10919928 
378500000   0.10527352 
378510000   0.10143402 
378520000  0.095063329 
378530000  0.089854076 
378540000   0.10282104 
378550000   0.10073654 
378560000   0.10483819 
378570000   0.10496423 
378580000   0.10377843 
378590000  0.099131953 
378600000  0.095206097 
378610000    0.1035927 
378620000    0.1039218 
378630000   0.11475253 
378640000   0.09527404 
378650000   0.10433048 
378660000  0.094275586 
378670000   0.10086544 
378680000  0.098083654 
378690000  0.092590349 
378700000   0.10259306 
378710000   0.10353212 
378720000   0.10334091 
378730000  0.097587012 
378740000   0.10558593 
378750000  0.090721962 
378760000   0.10121695 
378770000   0.10177477 
378780000   0.10822924 
378790000   0.10364158 
378800000  0.099987455 
378810000   0.10469755 
378820000   0.10781174 
378830000   0.10083482 
378840000   0.10057114 
378850000   0.10126995 
378860000  0.095724327 
378870000  0.088634937 
378880000  0.097902558 
378890000    0.1030021 
378900000  0.097727153 
378910000   0.10726867 
378920000   0.11184694 
378930000   0.10352138 
378940000   0.10397287 
378950000  0.098468174 
378960000   0.10727385 
378970000  0.097193896 
378980000  0.091757399 
378990000   0.10467374 
379000000    0.1008386 
379010000  0.098368878 
379020000  0.097078395 
379030000   0.10044324 
379040000   0.10082798 
379050000  0.095012829 
379060000   0.10036509 
379070000   0.10289109 
379080000   0.10660182 
379090000   0.10271895 
379100000   0.10025676 
379110000   0.10154102 
379120000   0.11521751 
379130000   0.09796859 
379140000   0.10555133 
379150000  0.096350879 
379160000  0.087890007 
379170000   0.10431648 
379180000   0.11021436 
379190000  0.096730951 
379200000   0.10097301 
379210000  0.093472252 
379220000  0.095321008 
379230000   0.10092718 
379240000   0.10050537 
379250000  0.087038837 
379260000  0.094949649 
379270000   0.10370646 
379280000   0.10639152 
379290000   0.10591441 
379300000  0.098808052 
379310000   0.10668892 
379320000  0.096401278 
379330000  0.098642214 
379340000  0.094002289 
379350000  0.096327634 
379360000  0.095278605 
379370000  0.094059615 
379380000   0.09186065 
379390000  0.096956004 
379400000  0.094984356 
379410000   0.10304393 
379420000  0.099762107 
379430000  0.095913606 
379440000   0.10254933 
379450000  0.099281081 
379460000  0.092257442 
379470000   0.10225097 
379480000  0.097523065 
379490000   0.10057506 
379500000  0.097984218 
379510000  0.091546526 
379520000   0.10538904 
379530000     0.100872 
379540000  0.096916557 
379550000   0.10724742 
379560000  0.096111434 
379570000    0.1021903 
379580000   0.10468099 
379590000  0.098736707 
379600000   0.10671764 
379610000   0.10099127 
379620000   0.10315736 
379630000   0.09513132 
379640000   0.10263061 
379650000   0.10174486 
379660000  0.094355066 
379670000  0.097734758 
379680000   0.10427079 
379690000   0.10046964 
379700000   0.10740272 
379710000   0.10437584 
379720000   0.10230817 
379730000  0.099348337 
379740000  0.099853028 
379750000   0.10708625 
379760000   0.10760263 
379770000  0.095652631 
379780000  0.099570518 
379790000   0.10088325 
379800000  0.094724415 
379810000   0.10153873 
379820000   0.10820327 
379830000  0.098684291 
379840000  0.088670293 
379850000   0.09308831 
379860000   0.08869481 
379870000   0.10020923 
379880000  0.099752087 
379890000  0.098189165 
379900000    0.1014152 
379910000  0.097470636 
379920000   0.10342682 
379930000  0.089492304 
379940000   0.09839127 
379950000   0.10031081 
379960000    0.0956858 
379970000  0.099351966 
379980000   0.09188224 
379990000   0.10484053 
380000000   0.10326512 
Loop time of 363635 on 1 procs for 200000000 steps with 231 atoms

Performance: 47520.135 tau/day, 550.002 timesteps/s
100.0% CPU use with 1 MPI tasks x no OpenMP threads

MPI task timing breakdown:
Section |  min time  |  avg time  |  max time  |%varavg| %total
---------------------------------------------------------------
Pair    | 3.4972e+05 | 3.4972e+05 | 3.4972e+05 |   0.0 | 96.17
Bond    | 2748.7     | 2748.7     | 2748.7     |   0.0 |  0.76
Neigh   | 16.794     | 16.794     | 16.794     |   0.0 |  0.00
Comm    | 854.11     | 854.11     | 854.11     |   0.0 |  0.23
Output  | 28.34      | 28.34      | 28.34      |   0.0 |  0.01
Modify  | 10119      | 10119      | 10119      |   0.0 |  2.78
Other   |            | 146.4      |            |       |  0.04

Nlocal:        231.000 ave         231 max         231 min
Histogram: 1 0 0 0 0 0 0 0 0 0
Nghost:        422.000 ave         422 max         422 min
Histogram: 1 0 0 0 0 0 0 0 0 0
Neighs:        9583.00 ave        9583 max        9583 min
Histogram: 1 0 0 0 0 0 0 0 0 0

Total # of neighbors = 9583
Ave neighs/atom = 41.484848
Ave special neighs/atom = 5.7402597
Neighbor list builds = 45139
Dangerous builds = 0
Total wall time: 196:39:42
