# LAMMPS data file
147 atoms
147 ellipsoids
144 bonds

4 atom types
1 bond types

# System size
0.000000 35.000000 xlo xhi
0.000000 35.000000 ylo yhi
0.000000 35.000000 zlo zhi

Masses

1 3.1575
2 3.1575
3 3.1575
4 3.1575

# Atom-ID, type, position, molecule-ID, ellipsoid flag, density
Atoms

1 3 -4.062710285186768e+00  5.261040210723877e+00  1.000457763671875e+01 1 1 1
2 2 -3.883170127868652e+00  4.776271343231201e+00  9.858154296875000e+00 1 1 1
3 4 -3.909455537796021e+00  4.298345565795898e+00  9.614074707031250e+00 1 1 1
4 1 -4.075432777404785e+00  3.947650194168091e+00  9.242431640625000e+00 1 1 1
5 3 -4.261917114257812e+00  3.796157121658325e+00  8.761840820312500e+00 1 1 1
6 2 -4.341875076293945e+00  3.840162992477417e+00  8.232299804687500e+00 1 1 1
7 1 -4.228819370269775e+00  4.001714706420898e+00  7.732543945312500e+00 1 1 1
8 2 -3.909534692764282e+00  4.158236503601074e+00  7.329711914062500e+00 1 1 1
9 2 -3.449187755584717e+00  4.188953399658203e+00  7.054382324218750e+00 1 1 1
10 4 -2.966516494750977e+00  4.020970821380615e+00  6.888549804687500e+00 1 1 1
11 1 -2.588754415512085e+00  3.656919717788696e+00  6.772644042968750e+00 1 1 1
12 2 -2.403280019760132e+00  3.173797369003296e+00  6.628112792968750e+00 1 1 1
13 2 -2.424393892288208e+00  2.693931579589844e+00  6.387329101562500e+00 1 1 1
14 2 -2.587941408157349e+00  2.338421821594238e+00  6.019165039062500e+00 1 1 1
15 3 -2.775647163391113e+00  2.181006193161011e+00  5.541015625000000e+00 1 1 1
16 4 -2.860050678253174e+00  2.220339059829712e+00  5.011840820312500e+00 1 1 1
17 1 -2.752914428710938e+00  2.380159616470337e+00  4.510192871093750e+00 1 1 1
18 2 -2.438826799392700e+00  2.538575410842896e+00  4.104003906250000e+00 1 1 1
19 3 -1.980957746505737e+00  2.574072122573853e+00  3.825134277343750e+00 1 1 1
20 1 -1.497104406356812e+00  2.411994934082031e+00  3.656860351562500e+00 1 1 1
21 3 -1.114954948425293e+00  2.052707910537720e+00  3.540588378906250e+00 1 1 1
22 1 -9.235331416130066e-01  1.571347713470459e+00  3.397888183593750e+00 1 1 1
23 1 -9.394379258155823e-01  1.089631557464600e+00  3.160400390625000e+00 1 1 1
24 3 -1.100473046302795e+00  7.293106317520142e-01  2.795898437500000e+00 1 1 1
25 3 -1.289298534393311e+00  5.660755634307861e-01  2.320068359375000e+00 1 1 1
26 3 -1.378033995628357e+00  6.006073951721191e-01  1.791259765625000e+00 1 1 1
27 2 -1.276835083961487e+00  7.586196660995483e-01  1.287780761718750e+00 1 1 1
28 1 -1.104429841041565e+00 -2.486956417560577e-01  5.984497070312500e-01 1 1 1
29 1 -1.042102217674255e+00 -7.118879556655884e-01  3.334350585937500e-01 1 1 1
30 1 -9.444505572319031e-01 -1.783126711845398e+00 -1.380004882812500e-01 1 1 1
31 1 -1.092433214187622e+00 -2.070253849029541e+00 -5.673828125000000e-01 1 1 1
32 1 -1.016542553901672e+00 -2.398567914962769e+00 -9.858398437500000e-01 1 1 1
33 4 -7.703027725219727e-01 -2.786143064498901e+00 -1.264831542968750e+00 1 1 1
34 1 -4.721187651157379e-01 -3.228525161743164e+00 -1.328735351562500e+00 1 1 1
35 3 -2.600796520709991e-01 -3.700420618057251e+00 -1.183776855468750e+00 1 1 1
36 4 -2.395044714212418e-01 -4.165347099304199e+00 -9.152221679687500e-01 1 1 1
37 3 -4.430468380451202e-01 -4.589457511901855e+00 -6.555786132812500e-01 1 1 1
38 3 -8.181496858596802e-01 -4.954400062561035e+00 -5.339355468750000e-01 1 1 1
39 3 -1.247075319290161e+00 -5.264336109161377e+00 -6.268920898437500e-01 1 1 1
40 2 -1.591710329055786e+00 -5.544301986694336e+00 -9.293823242187500e-01 1 1 1
41 3 -1.745952486991882e+00 -5.830694675445557e+00 -1.356994628906250e+00 1 1 1
42 3 -1.675891280174255e+00 -6.157524108886719e+00 -1.777709960937500e+00 1 1 1
43 4 -1.433051109313965e+00 -6.543405532836914e+00 -2.061950683593750e+00 1 1 1
44 1 -1.134371280670166e+00 -6.984519004821777e+00 -2.132263183593750e+00 1 1 1
45 4 -9.182708263397217e-01 -7.456060886383057e+00 -1.992126464843750e+00 1 1 1
46 2 -8.915477395057678e-01 -7.921687126159668e+00 -1.725341796875000e+00 1 1 1
47 1 -1.089181184768677e+00 -8.347263336181641e+00 -1.463684082031250e+00 1 1 1
48 4 -1.460826992988586e+00 -8.713926315307617e+00 -1.336730957031250e+00 1 1 1
49 2 -1.890183568000793e+00 -9.025138854980469e+00 -1.423400878906250e+00 1 1 1
50 3  6.165088653564453e+00  6.482584476470947e+00 -8.051391601562500e+00 2 1 1
51 2  6.293430328369141e+00  6.117265701293945e+00 -7.678955078125000e+00 2 1 1
52 4  6.373734951019287e+00  5.935300827026367e+00 -7.179809570312500e+00 2 1 1
53 1  6.302428245544434e+00  5.920270442962646e+00 -6.647460937500000e+00 2 1 1
54 3  6.033488273620605e+00  5.992324352264404e+00 -6.187988281250000e+00 2 1 1
55 2  5.595863819122314e+00  6.038487434387207e+00 -5.879638671875000e+00 2 1 1
56 1  5.082729816436768e+00  5.955672264099121e+00 -5.743469238281250e+00 2 1 1
57 3  4.615934848785400e+00  5.689774036407471e+00 -5.734924316406250e+00 2 1 1
58 2  4.299664497375488e+00  5.256259441375732e+00 -5.761047363281250e+00 2 1 1
59 1  4.180871009826660e+00  4.734188079833984e+00 -5.715759277343750e+00 2 1 1
60 4  4.231685638427734e+00  4.236420154571533e+00 -5.520019531250000e+00 2 1 1
61 1  4.359542846679688e+00  3.866438627243042e+00 -5.151977539062500e+00 2 1 1
62 3  4.442804336547852e+00  3.679261922836304e+00 -4.655273437500000e+00 2 1 1
63 4  4.376667022705078e+00  3.660414934158325e+00 -4.122375488281250e+00 2 1 1
64 3  4.113161563873291e+00  3.731499910354614e+00 -3.659606933593750e+00 2 1 1
65 3  3.679208993911743e+00  3.779927492141724e+00 -3.346496582031250e+00 2 1 1
66 4  3.166586160659790e+00  3.701756715774536e+00 -3.205749511718750e+00 2 1 1
67 2  2.696877717971802e+00  3.441086053848267e+00 -3.194763183593750e+00 2 1 1
68 2  2.375394105911255e+00  3.011375427246094e+00 -3.221496582031250e+00 2 1 1
69 3  2.251207828521729e+00  2.490356206893921e+00 -3.179443359375000e+00 2 1 1
70 4  2.298267602920532e+00  1.990342855453491e+00 -2.988464355468750e+00 2 1 1
71 2  2.425607204437256e+00  1.615758419036865e+00 -2.625000000000000e+00 2 1 1
72 1  2.511676549911499e+00  1.423337459564209e+00 -2.130737304687500e+00 2 1 1
73 1  2.450732946395874e+00  1.400637030601501e+00 -1.597412109375000e+00 2 1 1
74 2  2.192689418792725e+00  1.470671176910400e+00 -1.131347656250000e+00 2 1 1
75 4  1.762474179267883e+00  1.521273612976074e+00 -8.134765625000000e-01 2 1 1
76 2  1.250428557395935e+00  1.447667360305786e+00 -6.682739257812500e-01 2 1 1
77 1  7.030929327011108e-01  1.047887563705444e+00  2.805786132812500e-01 2 1 1
78 1  4.382242858409882e-01  9.293915033340454e-01  7.327880859375000e-01 2 1 1
79 3 -1.837399154901505e-01  7.701001167297363e-01  1.782775878906250e+00 2 1 1
80 2 -3.781124651432037e-01  1.250488281250000e+00  1.924621582031250e+00 2 1 1
81 2 -7.624329328536987e-01  1.607488393783569e+00  2.041076660156250e+00 2 1 1
82 2 -1.246821045875549e+00  1.766588926315308e+00  2.210510253906250e+00 2 1 1
83 4 -1.703428387641907e+00  1.728685855865479e+00  2.491210937500000e+00 2 1 1
84 4 -2.014900445938110e+00  1.569389820098877e+00  2.898986816406250e+00 2 1 1
85 2 -2.119052171707153e+00  1.410452365875244e+00  3.401489257812500e+00 2 1 1
86 4 -2.032481670379639e+00  1.373541951179504e+00  3.930541992187500e+00 2 1 1
87 2 -1.844212055206299e+00  1.533846139907837e+00  4.407531738281250e+00 2 1 1
88 3 -1.681897878646851e+00  1.891764163970947e+00  4.773925781250000e+00 2 1 1
89 4 -1.663402795791626e+00  2.372546911239624e+00  5.013000488281250e+00 2 1 1
90 1 -1.851837158203125e+00  2.854794502258301e+00  5.156616210937500e+00 2 1 1
91 2 -2.231800317764282e+00  3.216547012329102e+00  5.272705078125000e+00 2 1 1
92 3 -2.715071201324463e+00  3.381506919860840e+00  5.439697265625000e+00 2 1 1
93 3 -3.174190521240234e+00  3.348378896713257e+00  5.716857910156250e+00 2 1 1
94 3 -3.490882873535156e+00  3.190936803817749e+00  6.121276855468750e+00 2 1 1
95 4 -3.600974798202515e+00  3.030229806900024e+00  6.622070312500000e+00 2 1 1
96 1 -3.518782854080200e+00  2.988561868667603e+00  7.151367187500000e+00 2 1 1
97 3 -3.331692218780518e+00  3.143037319183350e+00  7.630798339843750e+00 2 1 1
98 3 -3.166908025741577e+00  3.496144056320190e+00  8.000671386718750e+00 2 1 1
99 3 -2.725807428359985e+00 -1.147143745422363e+01 -2.541564941406250e+00 3 1 1
100 2 -2.562386035919189e+00 -1.118604564666748e+01 -2.116699218750000e+00 3 1 1
101 4 -2.211727142333984e+00 -1.090552997589111e+01 -1.821716308593750e+00 3 1 1
102 1 -1.782220125198364e+00 -1.059367656707764e+01 -1.738220214843750e+00 3 1 1
103 3 -1.412245392799377e+00 -1.022617053985596e+01 -1.867736816406250e+00 3 1 1
104 2 -1.217630028724670e+00 -9.799843788146973e+00 -2.130432128906250e+00 3 1 1
105 1 -1.247430682182312e+00 -9.333889007568359e+00 -2.396301269531250e+00 3 1 1
106 3 -1.465538263320923e+00 -8.862518310546875e+00 -2.533874511718750e+00 3 1 1
107 1 -1.764372110366821e+00 -8.422053337097168e+00 -2.460449218750000e+00 3 1 1
108 4 -2.005553722381592e+00 -8.037051200866699e+00 -2.173583984375000e+00 3 1 1
109 3 -2.072585821151733e+00 -7.710930347442627e+00 -1.751892089843750e+00 3 1 1
110 1 -1.915330529212952e+00 -7.424873828887939e+00 -1.325134277343750e+00 3 1 1
111 4 -1.568631649017334e+00 -7.144742488861084e+00 -1.025085449218750e+00 3 1 1
112 1 -1.139488220214844e+00 -6.834171295166016e+00 -9.353637695312500e-01 3 1 1
113 2 -7.661182284355164e-01 -6.468368053436279e+00 -1.059631347656250e+00 3 1 1
114 2 -5.655269026756287e-01 -6.043517589569092e+00 -1.320312500000000e+00 3 1 1
115 3 -5.891717076301575e-01 -5.578235149383545e+00 -1.587951660156250e+00 3 1 1
116 2 -8.032737374305725e-01 -5.106516838073730e+00 -1.730529785156250e+00 3 1 1
117 2 -1.101670742034912e+00 -4.664770126342773e+00 -1.663452148437500e+00 3 1 1
118 2 -1.346243500709534e+00 -4.278039455413818e+00 -1.381774902343750e+00 3 1 1
119 1 -1.419192552566528e+00 -3.950476169586182e+00 -9.621582031250000e-01 3 1 1
120 2 -1.268080711364746e+00 -3.663719892501831e+00 -5.336914062500000e-01 3 1 1
121 4 -9.255171418190002e-01 -3.383931875228882e+00 -2.286376953125000e-01 3 1 1
122 1 -4.967966973781586e-01 -3.074625730514526e+00 -1.326293945312500e-01 3 1 1
123 4 -1.200878843665123e-01 -2.710512638092041e+00 -2.516479492187500e-01 3 1 1
124 4  8.639679104089737e-02 -2.287151098251343e+00 -5.101318359375000e-01 3 1 1
125 4  6.894598156213760e-02 -1.822586417198181e+00 -7.794799804687500e-01 3 1 1
126 1  5.872484445571899e-01 -8.231434226036072e-01 -8.495483398437500e-01 3 1 1
127 1  8.574563264846802e-01 -3.725845813751221e-01 -9.620971679687500e-01 3 1 1
128 3  1.458608984947205e+00  4.904698133468628e-01 -1.361389160156250e+00 3 1 1
129 1  1.331588149070740e+00  8.673424720764160e-01 -1.722595214843750e+00 3 1 1
130 3  1.286421418190002e+00  1.368430018424988e+00 -1.911254882812500e+00 3 1 1
131 4  1.413401246070862e+00  1.888940334320068e+00 -1.951660156250000e+00 3 1 1
132 4  1.737404704093933e+00  2.316681861877441e+00 -1.924743652343750e+00 3 1 1
133 3  2.208521842956543e+00  2.574743747711182e+00 -1.937011718750000e+00 3 1 1
134 1  2.720881700515747e+00  2.650640010833740e+00 -2.079956054687500e+00 3 1 1
135 2  3.152927637100220e+00  2.601096153259277e+00 -2.395446777343750e+00 3 1 1
136 3  3.413744688034058e+00  2.530529975891113e+00 -2.859924316406250e+00 3 1 1
137 3  3.477252244949341e+00  2.551280260086060e+00 -3.393005371093750e+00 3 1 1
138 1  3.392570734024048e+00  2.741089582443237e+00 -3.888427734375000e+00 3 1 1
139 2  3.264950037002563e+00  3.113372325897217e+00 -4.254272460937500e+00 3 1 1
140 2  3.216032266616821e+00  3.612262010574341e+00 -4.447631835937500e+00 3 1 1
141 1  3.337540388107300e+00  4.133830070495605e+00 -4.491271972656250e+00 3 1 1
142 2  3.656419515609741e+00  4.565463542938232e+00 -4.464843750000000e+00 3 1 1
143 4  4.124651908874512e+00  4.828730583190918e+00 -4.474609375000000e+00 3 1 1
144 1  4.637539386749268e+00  4.909226894378662e+00 -4.613037109375000e+00 3 1 1
145 4  5.073318958282471e+00  4.861916065216064e+00 -4.923767089843750e+00 3 1 1
146 3  5.339567661285400e+00  4.790329456329346e+00 -5.384887695312500e+00 3 1 1
147 2  5.408300876617432e+00  4.807277202606201e+00 -5.917541503906250e+00 3 1 1

# Atom-ID, translational, rotational velocity
Velocities

1  0.000000000000000e+00  0.000000000000000e+00  0.000000000000000e+00  0.000000000000000e+00  0.000000000000000e+00  0.000000000000000e+00
2  0.000000000000000e+00  0.000000000000000e+00  0.000000000000000e+00  0.000000000000000e+00  0.000000000000000e+00  0.000000000000000e+00
3  0.000000000000000e+00  0.000000000000000e+00  0.000000000000000e+00  0.000000000000000e+00  0.000000000000000e+00  0.000000000000000e+00
4  0.000000000000000e+00  0.000000000000000e+00  0.000000000000000e+00  0.000000000000000e+00  0.000000000000000e+00  0.000000000000000e+00
5  0.000000000000000e+00  0.000000000000000e+00  0.000000000000000e+00  0.000000000000000e+00  0.000000000000000e+00  0.000000000000000e+00
6  0.000000000000000e+00  0.000000000000000e+00  0.000000000000000e+00  0.000000000000000e+00  0.000000000000000e+00  0.000000000000000e+00
7  0.000000000000000e+00  0.000000000000000e+00  0.000000000000000e+00  0.000000000000000e+00  0.000000000000000e+00  0.000000000000000e+00
8  0.000000000000000e+00  0.000000000000000e+00  0.000000000000000e+00  0.000000000000000e+00  0.000000000000000e+00  0.000000000000000e+00
9  0.000000000000000e+00  0.000000000000000e+00  0.000000000000000e+00  0.000000000000000e+00  0.000000000000000e+00  0.000000000000000e+00
10  0.000000000000000e+00  0.000000000000000e+00  0.000000000000000e+00  0.000000000000000e+00  0.000000000000000e+00  0.000000000000000e+00
11  0.000000000000000e+00  0.000000000000000e+00  0.000000000000000e+00  0.000000000000000e+00  0.000000000000000e+00  0.000000000000000e+00
12  0.000000000000000e+00  0.000000000000000e+00  0.000000000000000e+00  0.000000000000000e+00  0.000000000000000e+00  0.000000000000000e+00
13  0.000000000000000e+00  0.000000000000000e+00  0.000000000000000e+00  0.000000000000000e+00  0.000000000000000e+00  0.000000000000000e+00
14  0.000000000000000e+00  0.000000000000000e+00  0.000000000000000e+00  0.000000000000000e+00  0.000000000000000e+00  0.000000000000000e+00
15  0.000000000000000e+00  0.000000000000000e+00  0.000000000000000e+00  0.000000000000000e+00  0.000000000000000e+00  0.000000000000000e+00
16  0.000000000000000e+00  0.000000000000000e+00  0.000000000000000e+00  0.000000000000000e+00  0.000000000000000e+00  0.000000000000000e+00
17  0.000000000000000e+00  0.000000000000000e+00  0.000000000000000e+00  0.000000000000000e+00  0.000000000000000e+00  0.000000000000000e+00
18  0.000000000000000e+00  0.000000000000000e+00  0.000000000000000e+00  0.000000000000000e+00  0.000000000000000e+00  0.000000000000000e+00
19  0.000000000000000e+00  0.000000000000000e+00  0.000000000000000e+00  0.000000000000000e+00  0.000000000000000e+00  0.000000000000000e+00
20  0.000000000000000e+00  0.000000000000000e+00  0.000000000000000e+00  0.000000000000000e+00  0.000000000000000e+00  0.000000000000000e+00
21  0.000000000000000e+00  0.000000000000000e+00  0.000000000000000e+00  0.000000000000000e+00  0.000000000000000e+00  0.000000000000000e+00
22  0.000000000000000e+00  0.000000000000000e+00  0.000000000000000e+00  0.000000000000000e+00  0.000000000000000e+00  0.000000000000000e+00
23  0.000000000000000e+00  0.000000000000000e+00  0.000000000000000e+00  0.000000000000000e+00  0.000000000000000e+00  0.000000000000000e+00
24  0.000000000000000e+00  0.000000000000000e+00  0.000000000000000e+00  0.000000000000000e+00  0.000000000000000e+00  0.000000000000000e+00
25  0.000000000000000e+00  0.000000000000000e+00  0.000000000000000e+00  0.000000000000000e+00  0.000000000000000e+00  0.000000000000000e+00
26  0.000000000000000e+00  0.000000000000000e+00  0.000000000000000e+00  0.000000000000000e+00  0.000000000000000e+00  0.000000000000000e+00
27  0.000000000000000e+00  0.000000000000000e+00  0.000000000000000e+00  0.000000000000000e+00  0.000000000000000e+00  0.000000000000000e+00
28  0.000000000000000e+00  0.000000000000000e+00  0.000000000000000e+00  0.000000000000000e+00  0.000000000000000e+00  0.000000000000000e+00
29  0.000000000000000e+00  0.000000000000000e+00  0.000000000000000e+00  0.000000000000000e+00  0.000000000000000e+00  0.000000000000000e+00
30  0.000000000000000e+00  0.000000000000000e+00  0.000000000000000e+00  0.000000000000000e+00  0.000000000000000e+00  0.000000000000000e+00
31  0.000000000000000e+00  0.000000000000000e+00  0.000000000000000e+00  0.000000000000000e+00  0.000000000000000e+00  0.000000000000000e+00
32  0.000000000000000e+00  0.000000000000000e+00  0.000000000000000e+00  0.000000000000000e+00  0.000000000000000e+00  0.000000000000000e+00
33  0.000000000000000e+00  0.000000000000000e+00  0.000000000000000e+00  0.000000000000000e+00  0.000000000000000e+00  0.000000000000000e+00
34  0.000000000000000e+00  0.000000000000000e+00  0.000000000000000e+00  0.000000000000000e+00  0.000000000000000e+00  0.000000000000000e+00
35  0.000000000000000e+00  0.000000000000000e+00  0.000000000000000e+00  0.000000000000000e+00  0.000000000000000e+00  0.000000000000000e+00
36  0.000000000000000e+00  0.000000000000000e+00  0.000000000000000e+00  0.000000000000000e+00  0.000000000000000e+00  0.000000000000000e+00
37  0.000000000000000e+00  0.000000000000000e+00  0.000000000000000e+00  0.000000000000000e+00  0.000000000000000e+00  0.000000000000000e+00
38  0.000000000000000e+00  0.000000000000000e+00  0.000000000000000e+00  0.000000000000000e+00  0.000000000000000e+00  0.000000000000000e+00
39  0.000000000000000e+00  0.000000000000000e+00  0.000000000000000e+00  0.000000000000000e+00  0.000000000000000e+00  0.000000000000000e+00
40  0.000000000000000e+00  0.000000000000000e+00  0.000000000000000e+00  0.000000000000000e+00  0.000000000000000e+00  0.000000000000000e+00
41  0.000000000000000e+00  0.000000000000000e+00  0.000000000000000e+00  0.000000000000000e+00  0.000000000000000e+00  0.000000000000000e+00
42  0.000000000000000e+00  0.000000000000000e+00  0.000000000000000e+00  0.000000000000000e+00  0.000000000000000e+00  0.000000000000000e+00
43  0.000000000000000e+00  0.000000000000000e+00  0.000000000000000e+00  0.000000000000000e+00  0.000000000000000e+00  0.000000000000000e+00
44  0.000000000000000e+00  0.000000000000000e+00  0.000000000000000e+00  0.000000000000000e+00  0.000000000000000e+00  0.000000000000000e+00
45  0.000000000000000e+00  0.000000000000000e+00  0.000000000000000e+00  0.000000000000000e+00  0.000000000000000e+00  0.000000000000000e+00
46  0.000000000000000e+00  0.000000000000000e+00  0.000000000000000e+00  0.000000000000000e+00  0.000000000000000e+00  0.000000000000000e+00
47  0.000000000000000e+00  0.000000000000000e+00  0.000000000000000e+00  0.000000000000000e+00  0.000000000000000e+00  0.000000000000000e+00
48  0.000000000000000e+00  0.000000000000000e+00  0.000000000000000e+00  0.000000000000000e+00  0.000000000000000e+00  0.000000000000000e+00
49  0.000000000000000e+00  0.000000000000000e+00  0.000000000000000e+00  0.000000000000000e+00  0.000000000000000e+00  0.000000000000000e+00
50  0.000000000000000e+00  0.000000000000000e+00  0.000000000000000e+00  0.000000000000000e+00  0.000000000000000e+00  0.000000000000000e+00
51  0.000000000000000e+00  0.000000000000000e+00  0.000000000000000e+00  0.000000000000000e+00  0.000000000000000e+00  0.000000000000000e+00
52  0.000000000000000e+00  0.000000000000000e+00  0.000000000000000e+00  0.000000000000000e+00  0.000000000000000e+00  0.000000000000000e+00
53  0.000000000000000e+00  0.000000000000000e+00  0.000000000000000e+00  0.000000000000000e+00  0.000000000000000e+00  0.000000000000000e+00
54  0.000000000000000e+00  0.000000000000000e+00  0.000000000000000e+00  0.000000000000000e+00  0.000000000000000e+00  0.000000000000000e+00
55  0.000000000000000e+00  0.000000000000000e+00  0.000000000000000e+00  0.000000000000000e+00  0.000000000000000e+00  0.000000000000000e+00
56  0.000000000000000e+00  0.000000000000000e+00  0.000000000000000e+00  0.000000000000000e+00  0.000000000000000e+00  0.000000000000000e+00
57  0.000000000000000e+00  0.000000000000000e+00  0.000000000000000e+00  0.000000000000000e+00  0.000000000000000e+00  0.000000000000000e+00
58  0.000000000000000e+00  0.000000000000000e+00  0.000000000000000e+00  0.000000000000000e+00  0.000000000000000e+00  0.000000000000000e+00
59  0.000000000000000e+00  0.000000000000000e+00  0.000000000000000e+00  0.000000000000000e+00  0.000000000000000e+00  0.000000000000000e+00
60  0.000000000000000e+00  0.000000000000000e+00  0.000000000000000e+00  0.000000000000000e+00  0.000000000000000e+00  0.000000000000000e+00
61  0.000000000000000e+00  0.000000000000000e+00  0.000000000000000e+00  0.000000000000000e+00  0.000000000000000e+00  0.000000000000000e+00
62  0.000000000000000e+00  0.000000000000000e+00  0.000000000000000e+00  0.000000000000000e+00  0.000000000000000e+00  0.000000000000000e+00
63  0.000000000000000e+00  0.000000000000000e+00  0.000000000000000e+00  0.000000000000000e+00  0.000000000000000e+00  0.000000000000000e+00
64  0.000000000000000e+00  0.000000000000000e+00  0.000000000000000e+00  0.000000000000000e+00  0.000000000000000e+00  0.000000000000000e+00
65  0.000000000000000e+00  0.000000000000000e+00  0.000000000000000e+00  0.000000000000000e+00  0.000000000000000e+00  0.000000000000000e+00
66  0.000000000000000e+00  0.000000000000000e+00  0.000000000000000e+00  0.000000000000000e+00  0.000000000000000e+00  0.000000000000000e+00
67  0.000000000000000e+00  0.000000000000000e+00  0.000000000000000e+00  0.000000000000000e+00  0.000000000000000e+00  0.000000000000000e+00
68  0.000000000000000e+00  0.000000000000000e+00  0.000000000000000e+00  0.000000000000000e+00  0.000000000000000e+00  0.000000000000000e+00
69  0.000000000000000e+00  0.000000000000000e+00  0.000000000000000e+00  0.000000000000000e+00  0.000000000000000e+00  0.000000000000000e+00
70  0.000000000000000e+00  0.000000000000000e+00  0.000000000000000e+00  0.000000000000000e+00  0.000000000000000e+00  0.000000000000000e+00
71  0.000000000000000e+00  0.000000000000000e+00  0.000000000000000e+00  0.000000000000000e+00  0.000000000000000e+00  0.000000000000000e+00
72  0.000000000000000e+00  0.000000000000000e+00  0.000000000000000e+00  0.000000000000000e+00  0.000000000000000e+00  0.000000000000000e+00
73  0.000000000000000e+00  0.000000000000000e+00  0.000000000000000e+00  0.000000000000000e+00  0.000000000000000e+00  0.000000000000000e+00
74  0.000000000000000e+00  0.000000000000000e+00  0.000000000000000e+00  0.000000000000000e+00  0.000000000000000e+00  0.000000000000000e+00
75  0.000000000000000e+00  0.000000000000000e+00  0.000000000000000e+00  0.000000000000000e+00  0.000000000000000e+00  0.000000000000000e+00
76  0.000000000000000e+00  0.000000000000000e+00  0.000000000000000e+00  0.000000000000000e+00  0.000000000000000e+00  0.000000000000000e+00
77  0.000000000000000e+00  0.000000000000000e+00  0.000000000000000e+00  0.000000000000000e+00  0.000000000000000e+00  0.000000000000000e+00
78  0.000000000000000e+00  0.000000000000000e+00  0.000000000000000e+00  0.000000000000000e+00  0.000000000000000e+00  0.000000000000000e+00
79  0.000000000000000e+00  0.000000000000000e+00  0.000000000000000e+00  0.000000000000000e+00  0.000000000000000e+00  0.000000000000000e+00
80  0.000000000000000e+00  0.000000000000000e+00  0.000000000000000e+00  0.000000000000000e+00  0.000000000000000e+00  0.000000000000000e+00
81  0.000000000000000e+00  0.000000000000000e+00  0.000000000000000e+00  0.000000000000000e+00  0.000000000000000e+00  0.000000000000000e+00
82  0.000000000000000e+00  0.000000000000000e+00  0.000000000000000e+00  0.000000000000000e+00  0.000000000000000e+00  0.000000000000000e+00
83  0.000000000000000e+00  0.000000000000000e+00  0.000000000000000e+00  0.000000000000000e+00  0.000000000000000e+00  0.000000000000000e+00
84  0.000000000000000e+00  0.000000000000000e+00  0.000000000000000e+00  0.000000000000000e+00  0.000000000000000e+00  0.000000000000000e+00
85  0.000000000000000e+00  0.000000000000000e+00  0.000000000000000e+00  0.000000000000000e+00  0.000000000000000e+00  0.000000000000000e+00
86  0.000000000000000e+00  0.000000000000000e+00  0.000000000000000e+00  0.000000000000000e+00  0.000000000000000e+00  0.000000000000000e+00
87  0.000000000000000e+00  0.000000000000000e+00  0.000000000000000e+00  0.000000000000000e+00  0.000000000000000e+00  0.000000000000000e+00
88  0.000000000000000e+00  0.000000000000000e+00  0.000000000000000e+00  0.000000000000000e+00  0.000000000000000e+00  0.000000000000000e+00
89  0.000000000000000e+00  0.000000000000000e+00  0.000000000000000e+00  0.000000000000000e+00  0.000000000000000e+00  0.000000000000000e+00
90  0.000000000000000e+00  0.000000000000000e+00  0.000000000000000e+00  0.000000000000000e+00  0.000000000000000e+00  0.000000000000000e+00
91  0.000000000000000e+00  0.000000000000000e+00  0.000000000000000e+00  0.000000000000000e+00  0.000000000000000e+00  0.000000000000000e+00
92  0.000000000000000e+00  0.000000000000000e+00  0.000000000000000e+00  0.000000000000000e+00  0.000000000000000e+00  0.000000000000000e+00
93  0.000000000000000e+00  0.000000000000000e+00  0.000000000000000e+00  0.000000000000000e+00  0.000000000000000e+00  0.000000000000000e+00
94  0.000000000000000e+00  0.000000000000000e+00  0.000000000000000e+00  0.000000000000000e+00  0.000000000000000e+00  0.000000000000000e+00
95  0.000000000000000e+00  0.000000000000000e+00  0.000000000000000e+00  0.000000000000000e+00  0.000000000000000e+00  0.000000000000000e+00
96  0.000000000000000e+00  0.000000000000000e+00  0.000000000000000e+00  0.000000000000000e+00  0.000000000000000e+00  0.000000000000000e+00
97  0.000000000000000e+00  0.000000000000000e+00  0.000000000000000e+00  0.000000000000000e+00  0.000000000000000e+00  0.000000000000000e+00
98  0.000000000000000e+00  0.000000000000000e+00  0.000000000000000e+00  0.000000000000000e+00  0.000000000000000e+00  0.000000000000000e+00
99  0.000000000000000e+00  0.000000000000000e+00  0.000000000000000e+00  0.000000000000000e+00  0.000000000000000e+00  0.000000000000000e+00
100  0.000000000000000e+00  0.000000000000000e+00  0.000000000000000e+00  0.000000000000000e+00  0.000000000000000e+00  0.000000000000000e+00
101  0.000000000000000e+00  0.000000000000000e+00  0.000000000000000e+00  0.000000000000000e+00  0.000000000000000e+00  0.000000000000000e+00
102  0.000000000000000e+00  0.000000000000000e+00  0.000000000000000e+00  0.000000000000000e+00  0.000000000000000e+00  0.000000000000000e+00
103  0.000000000000000e+00  0.000000000000000e+00  0.000000000000000e+00  0.000000000000000e+00  0.000000000000000e+00  0.000000000000000e+00
104  0.000000000000000e+00  0.000000000000000e+00  0.000000000000000e+00  0.000000000000000e+00  0.000000000000000e+00  0.000000000000000e+00
105  0.000000000000000e+00  0.000000000000000e+00  0.000000000000000e+00  0.000000000000000e+00  0.000000000000000e+00  0.000000000000000e+00
106  0.000000000000000e+00  0.000000000000000e+00  0.000000000000000e+00  0.000000000000000e+00  0.000000000000000e+00  0.000000000000000e+00
107  0.000000000000000e+00  0.000000000000000e+00  0.000000000000000e+00  0.000000000000000e+00  0.000000000000000e+00  0.000000000000000e+00
108  0.000000000000000e+00  0.000000000000000e+00  0.000000000000000e+00  0.000000000000000e+00  0.000000000000000e+00  0.000000000000000e+00
109  0.000000000000000e+00  0.000000000000000e+00  0.000000000000000e+00  0.000000000000000e+00  0.000000000000000e+00  0.000000000000000e+00
110  0.000000000000000e+00  0.000000000000000e+00  0.000000000000000e+00  0.000000000000000e+00  0.000000000000000e+00  0.000000000000000e+00
111  0.000000000000000e+00  0.000000000000000e+00  0.000000000000000e+00  0.000000000000000e+00  0.000000000000000e+00  0.000000000000000e+00
112  0.000000000000000e+00  0.000000000000000e+00  0.000000000000000e+00  0.000000000000000e+00  0.000000000000000e+00  0.000000000000000e+00
113  0.000000000000000e+00  0.000000000000000e+00  0.000000000000000e+00  0.000000000000000e+00  0.000000000000000e+00  0.000000000000000e+00
114  0.000000000000000e+00  0.000000000000000e+00  0.000000000000000e+00  0.000000000000000e+00  0.000000000000000e+00  0.000000000000000e+00
115  0.000000000000000e+00  0.000000000000000e+00  0.000000000000000e+00  0.000000000000000e+00  0.000000000000000e+00  0.000000000000000e+00
116  0.000000000000000e+00  0.000000000000000e+00  0.000000000000000e+00  0.000000000000000e+00  0.000000000000000e+00  0.000000000000000e+00
117  0.000000000000000e+00  0.000000000000000e+00  0.000000000000000e+00  0.000000000000000e+00  0.000000000000000e+00  0.000000000000000e+00
118  0.000000000000000e+00  0.000000000000000e+00  0.000000000000000e+00  0.000000000000000e+00  0.000000000000000e+00  0.000000000000000e+00
119  0.000000000000000e+00  0.000000000000000e+00  0.000000000000000e+00  0.000000000000000e+00  0.000000000000000e+00  0.000000000000000e+00
120  0.000000000000000e+00  0.000000000000000e+00  0.000000000000000e+00  0.000000000000000e+00  0.000000000000000e+00  0.000000000000000e+00
121  0.000000000000000e+00  0.000000000000000e+00  0.000000000000000e+00  0.000000000000000e+00  0.000000000000000e+00  0.000000000000000e+00
122  0.000000000000000e+00  0.000000000000000e+00  0.000000000000000e+00  0.000000000000000e+00  0.000000000000000e+00  0.000000000000000e+00
123  0.000000000000000e+00  0.000000000000000e+00  0.000000000000000e+00  0.000000000000000e+00  0.000000000000000e+00  0.000000000000000e+00
124  0.000000000000000e+00  0.000000000000000e+00  0.000000000000000e+00  0.000000000000000e+00  0.000000000000000e+00  0.000000000000000e+00
125  0.000000000000000e+00  0.000000000000000e+00  0.000000000000000e+00  0.000000000000000e+00  0.000000000000000e+00  0.000000000000000e+00
126  0.000000000000000e+00  0.000000000000000e+00  0.000000000000000e+00  0.000000000000000e+00  0.000000000000000e+00  0.000000000000000e+00