LAMMPS (29 Sep 2021 - Update 2)
#The sequence-specific interactions can be turned on/off choosing between seqdep/seqav
variable seqspec index seqdep

#Specify the temperature of the system (0.1 in SU is equivalent to 300K)
variable tem equal 0.1


### Salt concentration  ####
############################
#Specify the salt concentration the system (1.0 in SU is equivalent to 1M [NaCl])
variable sc   equal 0.15

#Effective charge in elementary charges
variable qeff equal 0.815


### Stacking parameters ####
############################
#Temperature-independent coefficient in stacking strength
variable xi    equal 1.3523

#Coefficient of linear temperature dependence in stacking strength
variable kappa equal 2.6717


### Hbond parameters ####
#########################
#Energy: 1.0678 (between base pairs A-T and C-G) and 0 (all other pairs)
variable eps equal 1.0678


#5.- The damp parameter. The default value is 0.03. The accelerated value is 1.0
variable tdamp    equal 0.03
variable tdampacc equal 2.5


#6.- The total number of nucleotides in the system
variable N equal 147

variable seed equal 402987

#The times
variable dumpfreq   equal 100000
variable trestart   equal 10000000

#total running time
variable runtime1 equal 180000000
variable runtime2 equal 200000000



units lj

dimension 3

newton off

boundary  p p p

atom_style hybrid bond ellipsoid oxdna
WARNING: Write_data command requires newton on to preserve 3'->5' bond polarity (../atom_vec_oxdna.cpp:52)
WARNING: Atom style hybrid defines both, per-type and per-atom masses; both must be set, but only per-atom masses will be used (../atom_vec_hybrid.cpp:157)
atom_modify sort 0 1.0

# Pair interactions require lists of neighbours to be calculated
neighbor 2.0 bin
neigh_modify every 1 delay 0 check yes

restart ${trestart} oxDNA.equil.N${N}.Restart
restart 10000000 oxDNA.equil.N${N}.Restart
restart 10000000 oxDNA.equil.N147.Restart
read_data val6.lammps.txt
Reading data file ...
  orthogonal box = (0.0000000 0.0000000 0.0000000) to (31.000000 31.000000 31.000000)
  1 by 1 by 1 MPI processor grid
  reading atoms ...
  278 atoms
  reading velocities ...
  278 velocities
  278 ellipsoids
  scanning bonds ...
  2 = max bonds/atom
  reading bonds ...
  272 bonds
Finding 1-2 1-3 1-4 neighbors ...
  special bond factors lj:    0        0        0       
  special bond factors coul:  0        0        0       
     2 = max # of 1-2 neighbors
     2 = max # of 1-3 neighbors
     4 = max # of 1-4 neighbors
     6 = max # of special neighbors
  special bonds CPU = 0.000 seconds
  read_data CPU = 0.033 seconds
#read_restart data/oxDNA.equil.N${N}.Restart.20000000
#reset_timestep 0

set atom * mass 3.1575
Setting atom values ...
  278 settings made for mass

#Groups
group all type 1:4
278 atoms in group all


# oxDNA2 bond interactions - FENE backbone
bond_style oxdna2/fene
bond_coeff * 2.0 0.25 0.7564
special_bonds lj 0 1 1
Finding 1-2 1-3 1-4 neighbors ...
  special bond factors lj:    0        1        1       
  special bond factors coul:  0        0        0       
     2 = max # of 1-2 neighbors
     2 = max # of 1-3 neighbors
     4 = max # of 1-4 neighbors
     6 = max # of special neighbors
  special bonds CPU = 0.000 seconds

# oxDNA2 pair interactions
pair_style hybrid/overlay oxdna2/excv oxdna2/stk oxdna2/hbond oxdna2/xstk oxdna2/coaxstk oxdna2/dh
pair_coeff * * oxdna2/excv               2.0 0.7 0.675 2.0 0.515 0.5 2.0 0.33 0.32
pair_coeff * * oxdna2/stk     ${seqspec} ${tem} ${xi} ${kappa} 6.0 0.4 0.9 0.32 0.75 1.3 0 0.8 0.9 0 0.95 0.9 0 0.95 2.0 0.65 2.0 0.65
pair_coeff * * oxdna2/stk     seqdep ${tem} ${xi} ${kappa} 6.0 0.4 0.9 0.32 0.75 1.3 0 0.8 0.9 0 0.95 0.9 0 0.95 2.0 0.65 2.0 0.65
pair_coeff * * oxdna2/stk     seqdep 0.1 ${xi} ${kappa} 6.0 0.4 0.9 0.32 0.75 1.3 0 0.8 0.9 0 0.95 0.9 0 0.95 2.0 0.65 2.0 0.65
pair_coeff * * oxdna2/stk     seqdep 0.1 1.3523 ${kappa} 6.0 0.4 0.9 0.32 0.75 1.3 0 0.8 0.9 0 0.95 0.9 0 0.95 2.0 0.65 2.0 0.65
pair_coeff * * oxdna2/stk     seqdep 0.1 1.3523 2.6717 6.0 0.4 0.9 0.32 0.75 1.3 0 0.8 0.9 0 0.95 0.9 0 0.95 2.0 0.65 2.0 0.65
pair_coeff * * oxdna2/hbond   ${seqspec} 0.0 8.0 0.4 0.75 0.34 0.7 1.5 0 0.7 1.5 0 0.7 1.5 0 0.7 0.46 3.141592653589793 0.7 4.0 1.5707963267948966 0.45 4.0 1.5707963267948966 0.45
pair_coeff * * oxdna2/hbond   seqdep 0.0 8.0 0.4 0.75 0.34 0.7 1.5 0 0.7 1.5 0 0.7 1.5 0 0.7 0.46 3.141592653589793 0.7 4.0 1.5707963267948966 0.45 4.0 1.5707963267948966 0.45
pair_coeff 1 4 oxdna2/hbond   ${seqspec} ${eps} 8.0 0.4 0.75 0.34 0.7 1.5 0 0.7 1.5 0 0.7 1.5 0 0.7 0.46 3.141592653589793 0.7 4.0 1.5707963267948966 0.45 4.0 1.5707963267948966 0.45
pair_coeff 1 4 oxdna2/hbond   seqdep ${eps} 8.0 0.4 0.75 0.34 0.7 1.5 0 0.7 1.5 0 0.7 1.5 0 0.7 0.46 3.141592653589793 0.7 4.0 1.5707963267948966 0.45 4.0 1.5707963267948966 0.45
pair_coeff 1 4 oxdna2/hbond   seqdep 1.0678 8.0 0.4 0.75 0.34 0.7 1.5 0 0.7 1.5 0 0.7 1.5 0 0.7 0.46 3.141592653589793 0.7 4.0 1.5707963267948966 0.45 4.0 1.5707963267948966 0.45
pair_coeff 2 3 oxdna2/hbond   ${seqspec} ${eps} 8.0 0.4 0.75 0.34 0.7 1.5 0 0.7 1.5 0 0.7 1.5 0 0.7 0.46 3.141592653589793 0.7 4.0 1.5707963267948966 0.45 4.0 1.5707963267948966 0.45
pair_coeff 2 3 oxdna2/hbond   seqdep ${eps} 8.0 0.4 0.75 0.34 0.7 1.5 0 0.7 1.5 0 0.7 1.5 0 0.7 0.46 3.141592653589793 0.7 4.0 1.5707963267948966 0.45 4.0 1.5707963267948966 0.45
pair_coeff 2 3 oxdna2/hbond   seqdep 1.0678 8.0 0.4 0.75 0.34 0.7 1.5 0 0.7 1.5 0 0.7 1.5 0 0.7 0.46 3.141592653589793 0.7 4.0 1.5707963267948966 0.45 4.0 1.5707963267948966 0.45
pair_coeff * * oxdna2/xstk               47.5 0.575 0.675 0.495 0.655 2.25 0.791592653589793 0.58 1.7 1.0 0.68 1.7 1.0 0.68 1.5 0 0.65 1.7 0.875 0.68 1.7 0.875 0.68
pair_coeff * * oxdna2/coaxstk            58.5 0.4 0.6 0.22 0.58 2.0 2.891592653589793 0.65 1.3 0 0.8 0.9 0 0.95 0.9 0 0.95 40.0 3.116592653589793
pair_coeff * * oxdna2/dh                 ${tem} ${sc} ${qeff}
pair_coeff * * oxdna2/dh                 0.1 ${sc} ${qeff}
pair_coeff * * oxdna2/dh                 0.1 0.15 ${qeff}
pair_coeff * * oxdna2/dh                 0.1 0.15 0.815


# NVE ensemble
fix 1 all nve/asphere
fix 2 all langevin ${tem} ${tem} ${tdamp} ${seed} angmom 10
fix 2 all langevin 0.1 ${tem} ${tdamp} ${seed} angmom 10
fix 2 all langevin 0.1 0.1 ${tdamp} ${seed} angmom 10
fix 2 all langevin 0.1 0.1 0.03 ${seed} angmom 10
fix 2 all langevin 0.1 0.1 0.03 402987 angmom 10
timestep 1e-3


#Useful commands when running in parallel
#comm_style tiled
#fix 3 all balance 10000 1.1 rcb
#comm_modify cutoff 2.65

thermo 10000
thermo_style custom  step  temp

compute erot all erotate/asphere
compute ekin all ke
compute epot all pe
variable erot equal c_erot
variable ekin equal c_ekin
variable epot equal c_epot
variable etot equal c_erot+c_ekin+c_epot
fix 4 all print ${dumpfreq} "$(step)  ekin = ${ekin} |  erot = ${erot} | epot = ${epot} | etot = ${etot}" screen no append energy_total.txt
fix 4 all print 100000 "$(step)  ekin = ${ekin} |  erot = ${erot} | epot = ${epot} | etot = ${etot}" screen no append energy_total.txt

shell mkdir data
shell cd data

#compute shape all property/atom shapex shapey shapez
compute quat all property/atom quatw quati quatj quatk

dump out all custom ${dumpfreq} out.data id mol type x y z ix iy iz c_quat[1] c_quat[2] c_quat[3] c_quat[4]
dump out all custom 100000 out.data id mol type x y z ix iy iz c_quat[1] c_quat[2] c_quat[3] c_quat[4]
dump_modify out sort id
dump_modify out format line "%d %d %d %.6le %.6le %.6le %d %d %d %.6le %.6le %.6le %.6le"

run ${runtime1}
run 180000000
Neighbor list info ...
  update every 1 steps, delay 0 steps, check yes
  max neighbors/atom: 2000, page size: 100000
  master list distance cutoff = 6.2019411
  ghost atom cutoff = 6.2019411
  binsize = 3.1009705, bins = 10 10 10
  5 neighbor lists, perpetual/occasional/extra = 5 0 0
  (1) pair oxdna2/excv, perpetual
      attributes: half, newton off
      pair build: half/bin/newtoff
      stencil: full/bin/3d
      bin: standard
  (2) pair oxdna2/hbond, perpetual, copy from (1)
      attributes: half, newton off
      pair build: copy
      stencil: none
      bin: none
  (3) pair oxdna2/xstk, perpetual, copy from (1)
      attributes: half, newton off
      pair build: copy
      stencil: none
      bin: none
  (4) pair oxdna2/coaxstk, perpetual, copy from (1)
      attributes: half, newton off
      pair build: copy
      stencil: none
      bin: none
  (5) pair oxdna2/dh, perpetual, copy from (1)
      attributes: half, newton off
      pair build: copy
      stencil: none
      bin: none
WARNING: FENE bond too long: 0 28 27 1.7630918387110477 (../bond_oxdna_fene.cpp:209)
WARNING: FENE bond too long: 0 27 28 1.7630918387110497 (../bond_oxdna_fene.cpp:209)
WARNING: FENE bond too long: 0 74 73 1.5378981481269196 (../bond_oxdna_fene.cpp:209)
WARNING: FENE bond too long: 0 73 74 1.5378981481269194 (../bond_oxdna_fene.cpp:209)
WARNING: FENE bond too long: 0 119 118 1.937638094138834 (../bond_oxdna_fene.cpp:209)
WARNING: FENE bond too long: 0 118 119 1.9376380941388334 (../bond_oxdna_fene.cpp:209)
WARNING: FENE bond too long: 0 165 164 1.7843417200148717 (../bond_oxdna_fene.cpp:209)
WARNING: FENE bond too long: 0 164 165 1.7843417200148701 (../bond_oxdna_fene.cpp:209)
WARNING: FENE bond too long: 0 212 211 1.896311810472883 (../bond_oxdna_fene.cpp:209)
WARNING: FENE bond too long: 0 211 212 1.8963118104728822 (../bond_oxdna_fene.cpp:209)
WARNING: FENE bond too long: 0 259 258 1.5077627528044588 (../bond_oxdna_fene.cpp:209)
WARNING: FENE bond too long: 0 258 259 1.5077627528044575 (../bond_oxdna_fene.cpp:209)
Per MPI rank memory allocation (min/avg/max) = 9.769 | 9.769 | 9.769 Mbytes
Step Temp 
       0            0 
WARNING: FENE bond too long: 1 28 27 1.762676011524764 (../bond_oxdna_fene.cpp:209)
WARNING: FENE bond too long: 1 27 28 1.7626760115247637 (../bond_oxdna_fene.cpp:209)
WARNING: FENE bond too long: 1 74 73 1.537920558991211 (../bond_oxdna_fene.cpp:209)
WARNING: FENE bond too long: 1 73 74 1.5379205589912104 (../bond_oxdna_fene.cpp:209)
WARNING: FENE bond too long: 1 119 118 1.9372315062316126 (../bond_oxdna_fene.cpp:209)
WARNING: FENE bond too long: 1 118 119 1.9372315062316106 (../bond_oxdna_fene.cpp:209)
WARNING: FENE bond too long: 1 165 164 1.7840470914413191 (../bond_oxdna_fene.cpp:209)
WARNING: FENE bond too long: 1 164 165 1.784047091441317 (../bond_oxdna_fene.cpp:209)
WARNING: FENE bond too long: 1 212 211 1.8958189695119538 (../bond_oxdna_fene.cpp:209)
WARNING: FENE bond too long: 1 211 212 1.8958189695119565 (../bond_oxdna_fene.cpp:209)
WARNING: FENE bond too long: 1 259 258 1.507657211533021 (../bond_oxdna_fene.cpp:209)
WARNING: FENE bond too long: 1 258 259 1.5076572115330185 (../bond_oxdna_fene.cpp:209)
WARNING: FENE bond too long: 2 28 27 1.762047165935846 (../bond_oxdna_fene.cpp:209)
WARNING: FENE bond too long: 2 27 28 1.7620471659358476 (../bond_oxdna_fene.cpp:209)
WARNING: FENE bond too long: 2 74 73 1.5375793625313556 (../bond_oxdna_fene.cpp:209)
WARNING: FENE bond too long: 2 73 74 1.537579362531358 (../bond_oxdna_fene.cpp:209)
WARNING: FENE bond too long: 2 119 118 1.9364911734285517 (../bond_oxdna_fene.cpp:209)
WARNING: FENE bond too long: 2 118 119 1.9364911734285515 (../bond_oxdna_fene.cpp:209)
WARNING: FENE bond too long: 2 165 164 1.7833045517102366 (../bond_oxdna_fene.cpp:209)
WARNING: FENE bond too long: 2 164 165 1.7833045517102357 (../bond_oxdna_fene.cpp:209)
WARNING: FENE bond too long: 2 212 211 1.8951293768825175 (../bond_oxdna_fene.cpp:209)
WARNING: FENE bond too long: 2 211 212 1.8951293768825164 (../bond_oxdna_fene.cpp:209)
WARNING: FENE bond too long: 2 259 258 1.5070459307309978 (../bond_oxdna_fene.cpp:209)
WARNING: FENE bond too long: 2 258 259 1.5070459307309971 (../bond_oxdna_fene.cpp:209)
WARNING: FENE bond too long: 3 28 27 1.760679969933147 (../bond_oxdna_fene.cpp:209)
WARNING: FENE bond too long: 3 27 28 1.760679969933146 (../bond_oxdna_fene.cpp:209)
WARNING: FENE bond too long: 3 74 73 1.5367478985744822 (../bond_oxdna_fene.cpp:209)
WARNING: FENE bond too long: 3 73 74 1.536747898574481 (../bond_oxdna_fene.cpp:209)
WARNING: FENE bond too long: 3 119 118 1.935766143709314 (../bond_oxdna_fene.cpp:209)
WARNING: FENE bond too long: 3 118 119 1.9357661437093152 (../bond_oxdna_fene.cpp:209)
WARNING: FENE bond too long: 3 165 164 1.7821988610128061 (../bond_oxdna_fene.cpp:209)
WARNING: FENE bond too long: 3 164 165 1.7821988610128077 (../bond_oxdna_fene.cpp:209)
WARNING: FENE bond too long: 3 212 211 1.893868154675068 (../bond_oxdna_fene.cpp:209)
WARNING: FENE bond too long: 3 211 212 1.8938681546750658 (../bond_oxdna_fene.cpp:209)
WARNING: FENE bond too long: 3 259 258 1.506076617251895 (../bond_oxdna_fene.cpp:209)
WARNING: FENE bond too long: 3 258 259 1.5060766172518987 (../bond_oxdna_fene.cpp:209)
WARNING: FENE bond too long: 4 28 27 1.7592251281580258 (../bond_oxdna_fene.cpp:209)
WARNING: FENE bond too long: 4 27 28 1.7592251281580242 (../bond_oxdna_fene.cpp:209)
WARNING: FENE bond too long: 4 74 73 1.5358834408182083 (../bond_oxdna_fene.cpp:209)
WARNING: FENE bond too long: 4 73 74 1.5358834408182083 (../bond_oxdna_fene.cpp:209)
WARNING: FENE bond too long: 4 119 118 1.9349496638547803 (../bond_oxdna_fene.cpp:209)
WARNING: FENE bond too long: 4 118 119 1.9349496638547832 (../bond_oxdna_fene.cpp:209)
WARNING: FENE bond too long: 4 165 164 1.781441794308198 (../bond_oxdna_fene.cpp:209)
WARNING: FENE bond too long: 4 164 165 1.7814417943081984 (../bond_oxdna_fene.cpp:209)
WARNING: FENE bond too long: 4 212 211 1.8918448529389438 (../bond_oxdna_fene.cpp:209)
WARNING: FENE bond too long: 4 211 212 1.8918448529389447 (../bond_oxdna_fene.cpp:209)
WARNING: FENE bond too long: 4 259 258 1.5053795501589777 (../bond_oxdna_fene.cpp:209)
WARNING: FENE bond too long: 4 258 259 1.5053795501589824 (../bond_oxdna_fene.cpp:209)
WARNING: FENE bond too long: 5 28 27 1.7577608305370143 (../bond_oxdna_fene.cpp:209)
WARNING: FENE bond too long: 5 27 28 1.757760830537015 (../bond_oxdna_fene.cpp:209)
WARNING: FENE bond too long: 5 74 73 1.5350327240176809 (../bond_oxdna_fene.cpp:209)
WARNING: FENE bond too long: 5 73 74 1.5350327240176784 (../bond_oxdna_fene.cpp:209)
WARNING: FENE bond too long: 5 119 118 1.9333054933546696 (../bond_oxdna_fene.cpp:209)
WARNING: FENE bond too long: 5 118 119 1.9333054933546694 (../bond_oxdna_fene.cpp:209)
WARNING: FENE bond too long: 5 165 164 1.7802270183370847 (../bond_oxdna_fene.cpp:209)
WARNING: FENE bond too long: 5 164 165 1.7802270183370836 (../bond_oxdna_fene.cpp:209)
WARNING: FENE bond too long: 5 212 211 1.8891941119047815 (../bond_oxdna_fene.cpp:209)
WARNING: FENE bond too long: 5 211 212 1.8891941119047844 (../bond_oxdna_fene.cpp:209)
WARNING: FENE bond too long: 5 259 258 1.504768470595774 (../bond_oxdna_fene.cpp:209)
WARNING: FENE bond too long: 5 258 259 1.5047684705957696 (../bond_oxdna_fene.cpp:209)
WARNING: FENE bond too long: 6 28 27 1.7562320553438244 (../bond_oxdna_fene.cpp:209)
WARNING: FENE bond too long: 6 27 28 1.7562320553438244 (../bond_oxdna_fene.cpp:209)
WARNING: FENE bond too long: 6 74 73 1.5340830286765386 (../bond_oxdna_fene.cpp:209)
WARNING: FENE bond too long: 6 73 74 1.5340830286765388 (../bond_oxdna_fene.cpp:209)
WARNING: FENE bond too long: 6 119 118 1.9316883239169347 (../bond_oxdna_fene.cpp:209)
WARNING: FENE bond too long: 6 118 119 1.931688323916935 (../bond_oxdna_fene.cpp:209)
WARNING: FENE bond too long: 6 165 164 1.7784206970177536 (../bond_oxdna_fene.cpp:209)
WARNING: FENE bond too long: 6 164 165 1.778420697017751 (../bond_oxdna_fene.cpp:209)
WARNING: FENE bond too long: 6 212 211 1.8866202386792918 (../bond_oxdna_fene.cpp:209)
WARNING: FENE bond too long: 6 211 212 1.886620238679294 (../bond_oxdna_fene.cpp:209)
WARNING: FENE bond too long: 6 259 258 1.503771435870168 (../bond_oxdna_fene.cpp:209)
WARNING: FENE bond too long: 6 258 259 1.5037714358701684 (../bond_oxdna_fene.cpp:209)
WARNING: FENE bond too long: 7 28 27 1.7541073402664162 (../bond_oxdna_fene.cpp:209)
WARNING: FENE bond too long: 7 27 28 1.754107340266416 (../bond_oxdna_fene.cpp:209)
WARNING: FENE bond too long: 7 74 73 1.5328129728809343 (../bond_oxdna_fene.cpp:209)
WARNING: FENE bond too long: 7 73 74 1.5328129728809339 (../bond_oxdna_fene.cpp:209)
WARNING: FENE bond too long: 7 119 118 1.9297468972198313 (../bond_oxdna_fene.cpp:209)
WARNING: FENE bond too long: 7 118 119 1.9297468972198324 (../bond_oxdna_fene.cpp:209)
WARNING: FENE bond too long: 7 165 164 1.7767614538014516 (../bond_oxdna_fene.cpp:209)
WARNING: FENE bond too long: 7 164 165 1.7767614538014518 (../bond_oxdna_fene.cpp:209)
WARNING: FENE bond too long: 7 212 211 1.8837967074549689 (../bond_oxdna_fene.cpp:209)
WARNING: FENE bond too long: 7 211 212 1.8837967074549729 (../bond_oxdna_fene.cpp:209)
WARNING: FENE bond too long: 7 259 258 1.502082605717801 (../bond_oxdna_fene.cpp:209)
WARNING: FENE bond too long: 7 258 259 1.502082605717801 (../bond_oxdna_fene.cpp:209)
WARNING: FENE bond too long: 8 28 27 1.7518700669929104 (../bond_oxdna_fene.cpp:209)
WARNING: FENE bond too long: 8 27 28 1.7518700669929104 (../bond_oxdna_fene.cpp:209)
WARNING: Too many warnings: 2968 vs 100. All future warnings will be suppressed (../thermo.cpp:422)
   10000   0.10846831 
   20000  0.094253349 
   30000   0.10474775 
   40000  0.099331222 
   50000  0.095127023 
   60000  0.097398118 
   70000   0.10578083 
   80000    0.1003656 
   90000  0.099533342 
  100000   0.10744634 
  110000   0.10204103 
  120000   0.10856766 
  130000   0.10692964 
  140000   0.10050193 
  150000   0.10217792 
  160000   0.10257891 
  170000   0.10434766 
  180000   0.10465586 
  190000   0.10002618 
  200000  0.097605923 
  210000   0.10340611 
  220000  0.094012923 
  230000   0.10282333 
  240000  0.098885823 
  250000  0.099607085 
  260000  0.095251157 
  270000   0.10781206 
  280000  0.094437864 
  290000   0.10982649 
  300000   0.10800105 
  310000    0.1035645 
  320000  0.095924495 
  330000  0.095872963 
  340000   0.10310122 
  350000   0.10632851 
  360000  0.099110417 
  370000  0.097286303 
  380000  0.094613692 
  390000  0.096601917 
  400000   0.10146465 
  410000  0.098539992 
  420000  0.090799773 
  430000   0.10247412 
  440000   0.10468142 
  450000  0.099302751 
  460000   0.10849753 
  470000   0.09887205 
  480000  0.094561954 
  490000   0.10110248 
  500000   0.10380049 
  510000  0.099960147 
  520000   0.09936595 
  530000   0.10159658 
  540000   0.10360512 
  550000  0.098995865 
  560000  0.098994095 
  570000   0.10573501 
  580000   0.10754972 
  590000   0.10265835 
  600000   0.10123417 
  610000   0.10545921 
  620000   0.10205892 
  630000   0.10453293 
  640000   0.09698099 
  650000   0.10282226 
  660000   0.10506457 
  670000  0.093997903 
  680000   0.10315639 
  690000  0.098424364 
  700000   0.09803566 
  710000  0.096180635 
  720000  0.095312897 
  730000   0.10396862 
  740000  0.099207412 
  750000  0.097093017 
  760000  0.095844218 
  770000   0.10279468 
  780000   0.11285276 
  790000  0.088830945 
  800000   0.10309364 
  810000  0.093973862 
  820000   0.10585287 
  830000   0.10779431 
  840000   0.10966348 
  850000   0.10082886 
  860000    0.0982891 
  870000  0.093232576 
  880000   0.10160456 
  890000  0.086782288 
  900000   0.10359796 
  910000   0.10010929 
  920000    0.1080832 
  930000   0.10928543 
  940000  0.095466259 
  950000    0.1000326 
  960000   0.10027746 
  970000  0.098111387 
  980000   0.10610407 
  990000   0.10801128 
 1000000  0.096922246 
 1010000   0.10154405 
 1020000  0.095299732 
 1030000  0.092964506 
 1040000   0.10231827 
 1050000  0.098026962 
 1060000  0.098050786 
 1070000  0.093956721 
 1080000   0.10402514 
 1090000   0.10578948 
 1100000  0.095970372 
 1110000  0.097122072 
 1120000  0.098923345 
 1130000   0.10006498 
 1140000  0.095865822 
 1150000   0.10064007 
 1160000  0.089905792 
 1170000  0.099704701 
 1180000  0.099537183 
 1190000    0.1086818 
 1200000   0.10390284 
 1210000  0.098116356 
 1220000    0.0952791 
 1230000   0.11426167 
 1240000   0.10508387 
 1250000   0.10734655 
 1260000  0.098459494 
 1270000   0.09775412 
 1280000  0.098662137 
 1290000   0.10147564 
 1300000  0.096151502 
 1310000    0.1003324 
 1320000   0.10223784 
 1330000  0.098100627 
 1340000  0.097026858 
 1350000  0.098047325 
 1360000   0.10303316 
 1370000   0.10512386 
 1380000  0.095654535 
 1390000  0.096970033 
 1400000   0.10505914 
 1410000  0.099822692 
 1420000   0.10957722 
 1430000   0.10044697 
 1440000   0.10293435 
 1450000   0.10018196 
 1460000  0.099418745 
 1470000   0.09726467 
 1480000  0.092821875 
 1490000  0.097971876 
 1500000   0.10231029 
 1510000   0.10538724 
 1520000  0.094872134 
 1530000   0.09463818 
 1540000  0.095263392 
 1550000  0.095851248 
 1560000  0.099992127 
 1570000   0.10984858 
 1580000  0.098681723 
 1590000   0.10403316 
 1600000  0.096810215 
 1610000    0.1038623 
 1620000   0.10078506 
 1630000  0.099768935 
 1640000   0.10741495 
 1650000   0.10728547 
 1660000   0.10374152 
 1670000   0.10656013 
 1680000    0.1016563 
 1690000   0.10252269 
 1700000    0.1104819 
 1710000  0.096237304 
 1720000   0.10347591 
 1730000   0.09146082 
 1740000   0.10149909 
 1750000  0.099236728 
 1760000  0.097420042 
 1770000  0.095318357 
 1780000   0.10649696 
 1790000  0.089000043 
 1800000  0.097654078 
 1810000   0.10864407 
 1820000   0.10240803 
 1830000   0.09696725 
 1840000  0.097745208 
 1850000   0.10698525 
 1860000   0.10734361 
 1870000   0.10274839 
 1880000   0.10402128 
 1890000  0.098370344 
 1900000  0.095867901 
 1910000  0.096010178 
 1920000  0.092716715 
 1930000   0.10455754 
 1940000  0.091993247 
 1950000   0.10636725 
 1960000   0.09927103 
 1970000  0.096684048 
 1980000    0.1070331 
 1990000  0.093044709 
 2000000  0.099813996 
 2010000   0.09690566 
 2020000  0.093769151 
 2030000   0.10251581 
 2040000   0.10192453 
 2050000  0.093714495 
 2060000  0.099038268 
 2070000     0.103838 
 2080000  0.094024855 
 2090000   0.10231559 
 2100000  0.095278557 
 2110000   0.10127436 
 2120000  0.099652406 
 2130000  0.093449335 
 2140000  0.092222421 
 2150000   0.10011032 
 2160000   0.10630563 
 2170000   0.10151713 
 2180000  0.094908543 
 2190000  0.099869546 
 2200000  0.099559136 
 2210000   0.09703918 
 2220000   0.10470651 
 2230000   0.10513033 
 2240000  0.096505783 
 2250000   0.10527928 
 2260000   0.10525439 
 2270000   0.10348939 
 2280000   0.10549641 
 2290000   0.10385288 
 2300000   0.10210252 
 2310000   0.10419707 
 2320000   0.10007188 
 2330000   0.10036378 
 2340000  0.099376427 
 2350000  0.095883138 
 2360000   0.10397511 
 2370000   0.10140938 
 2380000   0.10322737 
 2390000  0.094930474 
 2400000  0.098590765 
 2410000  0.090340343 
 2420000   0.10423335 
 2430000   0.10286796 
 2440000  0.097614252 
 2450000  0.099008098 
 2460000   0.10256444 
 2470000   0.09976328 
 2480000  0.098391201 
 2490000  0.099129592 
 2500000   0.10386399 
 2510000   0.10476204 
 2520000  0.098160637 
 2530000   0.10117457 
 2540000  0.095498504 
 2550000   0.10036059 
 2560000   0.10661876 
 2570000  0.094811074 
 2580000   0.09921509 
 2590000   0.10257743 
 2600000  0.091318394 
 2610000   0.09946137 
 2620000   0.09911142 
 2630000   0.10006221 
 2640000   0.10144207 
 2650000   0.11455679 
 2660000    0.1024516 
 2670000   0.10208293 
 2680000  0.095812722 
 2690000   0.10351701 
 2700000   0.10937038 
 2710000  0.096279695 
 2720000  0.093287753 
 2730000   0.10207728 
 2740000   0.10080395 
 2750000   0.10634846 
 2760000  0.098530066 
 2770000   0.10286179 
 2780000  0.095594857 
 2790000  0.095525812 
 2800000   0.10608891 
 2810000   0.10516493 
 2820000  0.098080307 
 2830000   0.10412251 
 2840000  0.099440037 
 2850000  0.096112422 
 2860000  0.098959254 
 2870000  0.095804716 
 2880000   0.10473422 
 2890000   0.09950436 
 2900000   0.09466747 
 2910000   0.10184893 
 2920000  0.094389375 
 2930000  0.098991164 
 2940000   0.10782585 
 2950000   0.10460114 
 2960000  0.097131837 
 2970000  0.097435262 
 2980000  0.096652603 
 2990000  0.093320037 
 3000000   0.10099788 
 3010000   0.10129575 
 3020000  0.091785976 
 3030000  0.097552492 
 3040000   0.10064699 
 3050000   0.10364752 
 3060000   0.10183647 
 3070000   0.10480463 
 3080000  0.097950568 
 3090000  0.097610373 
 3100000   0.10427423 
 3110000  0.094305586 
 3120000  0.090449278 
 3130000   0.11022376 
 3140000   0.10476204 
 3150000  0.098329683 
 3160000   0.10052205 
 3170000  0.098810651 
 3180000  0.097615574 
 3190000  0.087561759 
 3200000   0.10693166 
 3210000   0.10438753 
 3220000   0.10634664 
 3230000    0.0959617 
 3240000   0.11061618 
 3250000  0.094494392 
 3260000   0.10022633 
 3270000   0.10565303 
 3280000   0.10348984 
 3290000   0.10910469 
 3300000  0.093871502 
 3310000  0.097378929 
 3320000  0.098535596 
 3330000    0.1015282 
 3340000  0.093949358 
 3350000   0.10522661 
 3360000  0.096601784 
 3370000   0.10911465 
 3380000  0.099289581 
 3390000  0.093797888 
 3400000   0.10060715 
 3410000   0.11292651 
 3420000   0.10145955 
 3430000  0.098934475 
 3440000   0.10494235 
 3450000   0.11173644 
 3460000  0.094847428 
 3470000  0.097716993 
 3480000   0.10484884 
 3490000   0.10231801 
 3500000   0.10025427 
 3510000  0.095937876 
 3520000  0.097081274 
 3530000  0.094732479 
 3540000   0.10022547 
 3550000   0.10875281 
 3560000   0.11200485 
 3570000  0.090927297 
 3580000  0.097337204 
 3590000  0.096494928 
 3600000  0.092259541 
 3610000  0.096121175 
 3620000    0.1025343 
 3630000   0.10873769 
 3640000  0.097648226 
 3650000   0.10058425 
 3660000  0.099624577 
 3670000  0.098513745 
 3680000  0.096295354 
 3690000  0.090753681 
 3700000  0.099527317 
 3710000  0.092950518 
 3720000  0.094163752 
 3730000  0.097012264 
 3740000   0.10162194 
 3750000   0.10719293 
 3760000   0.10178304 
 3770000  0.085151816 
 3780000  0.097597446 
 3790000  0.097094996 
 3800000   0.10227973 
 3810000    0.1071782 
 3820000   0.10369383 
 3830000   0.10990841 
 3840000  0.099566892 
 3850000   0.09826022 
 3860000  0.093212844 
 3870000  0.097932845 
 3880000   0.11146122 
 3890000   0.10294688 
 3900000  0.098095701 
 3910000   0.11179484 
 3920000   0.10615892 
 3930000   0.10501491 
 3940000   0.11227899 
 3950000  0.097941214 
 3960000  0.097449897 
 3970000    0.1003131 
 3980000  0.093884569 
 3990000  0.094848233 
 4000000  0.098554364 
 4010000   0.10144465 
 4020000  0.096013632 
 4030000  0.098387957 
 4040000  0.098071976 
 4050000  0.089081714 
 4060000   0.10363209 
 4070000  0.096154419 
 4080000  0.099749319 
 4090000  0.097921713 
 4100000  0.096391268 
 4110000  0.096876035 
 4120000   0.10424674 
 4130000   0.10682922 
 4140000   0.10027426 
 4150000  0.095649589 
 4160000   0.10269179 
 4170000   0.10465635 
 4180000  0.091713187 
 4190000   0.10272559 
 4200000  0.094532286 
 4210000   0.10261988 
 4220000   0.10578703 
 4230000   0.10055259 
 4240000  0.093976268 
 4250000   0.10435516 
 4260000   0.10850261 
 4270000   0.10197695 
 4280000   0.10590333 
 4290000   0.10054198 
 4300000   0.10685869 
 4310000   0.10276734 
 4320000  0.099515027 
 4330000  0.096924751 
 4340000   0.10316178 
 4350000   0.09706178 
 4360000   0.10426592 
 4370000   0.10330632 
 4380000   0.10634761 
 4390000  0.097414721 
 4400000  0.095838884 
 4410000  0.095562116 
 4420000  0.091050561 
 4430000   0.10114882 
 4440000  0.097866297 
 4450000   0.10263789 
 4460000  0.099486529 
 4470000   0.10260456 
 4480000   0.09855085 
 4490000  0.096027072 
 4500000   0.10211534 
 4510000   0.10505038 
 4520000   0.10418621 
 4530000  0.099590474 
 4540000  0.095178302 
 4550000    0.1007521 
 4560000   0.10864983 
 4570000  0.096053135 
 4580000  0.097519968 
 4590000   0.10394514 
 4600000  0.091001585 
 4610000    0.1005654 
 4620000   0.10744516 
 4630000  0.098924609 
 4640000  0.092691122 
 4650000  0.099284459 
 4660000  0.095132124 
 4670000   0.10260004 
 4680000   0.10375526 
 4690000  0.099963081 
 4700000   0.10107944 
 4710000   0.10319681 
 4720000  0.093428938 
 4730000  0.099277668 
 4740000   0.11318528 
 4750000   0.10669183 
 4760000   0.10246039 
 4770000  0.094966517 
 4780000  0.097859604 
 4790000  0.097589589 
 4800000  0.096579158 
 4810000   0.10201026 
 4820000  0.098990322 
 4830000  0.095450094 
 4840000  0.097874571 
 4850000  0.094471319 
 4860000  0.093224327 
 4870000  0.096842152 
 4880000   0.11091543 
 4890000   0.10438295 
 4900000  0.094526193 
 4910000   0.10007263 
 4920000  0.095437123 
 4930000  0.098358212 
 4940000  0.099488343 
 4950000  0.099520933 
 4960000   0.10394265 
 4970000   0.10477896 
 4980000   0.10228715 
 4990000   0.10769063 
 5000000   0.10351182 
 5010000   0.10061843 
 5020000  0.099087313 
 5030000  0.098911714 
 5040000   0.10496596 
 5050000   0.10247316 
 5060000  0.098555592 
 5070000   0.10413878 
 5080000   0.10059946 
 5090000   0.10504171 
 5100000   0.10006083 
 5110000  0.095305729 
 5120000  0.094802282 
 5130000  0.096296681 
 5140000   0.10512507 
 5150000  0.096875007 
 5160000   0.10503107 
 5170000  0.097576213 
 5180000  0.094922715 
 5190000  0.094386979 
 5200000  0.099273583 
 5210000  0.093908869 
 5220000  0.093341366 
 5230000  0.099939483 
 5240000   0.10035289 
 5250000  0.099121133 
 5260000   0.10353417 
 5270000  0.090624608 
 5280000   0.10489673 
 5290000  0.097264732 
 5300000  0.098068675 
 5310000  0.088716011 
 5320000   0.10464556 
 5330000  0.097299683 
 5340000    0.1066191 
 5350000  0.093971333 
 5360000   0.10010299 
 5370000   0.10174489 
 5380000  0.098205164 
 5390000  0.099584014 
 5400000   0.10430076 
 5410000   0.10349234 
 5420000  0.097554857 
 5430000   0.10062605 
 5440000   0.10059561 
 5450000   0.10988718 
 5460000   0.10525603 
 5470000   0.11010062 
 5480000   0.10442173 
 5490000   0.10276488 
 5500000  0.095319568 
 5510000  0.098628776 
 5520000   0.10491896 
 5530000   0.10979027 
 5540000   0.10045462 
 5550000    0.1023016 
 5560000  0.098845005 
 5570000   0.10263108 
 5580000  0.094976357 
 5590000  0.096160895 
 5600000  0.099656793 
 5610000  0.096867387 
 5620000  0.092988349 
 5630000    0.1054565 
 5640000   0.10585616 
 5650000  0.097789955 
 5660000   0.10092477 
 5670000   0.10995969 
 5680000   0.10723882 
 5690000   0.11458413 
 5700000    0.1022067 
 5710000  0.097037472 
 5720000   0.10150739 
 5730000  0.094801276 
 5740000    0.1003646 
 5750000  0.090013048 
 5760000   0.10298197 
 5770000  0.096588952 
 5780000     0.111738 
 5790000   0.10648843 
 5800000   0.10387997 
 5810000  0.097624013 
 5820000   0.10175153 
 5830000   0.10421458 
 5840000    0.1040113 
 5850000   0.10434905 
 5860000    0.1068786 
 5870000  0.099214706 
 5880000   0.10593278 
 5890000  0.090095108 
 5900000  0.098452128 
 5910000  0.096182485 
 5920000   0.10203871 
 5930000  0.098973204 
 5940000   0.10277778 
 5950000   0.10215084 
 5960000   0.10292425 
 5970000  0.094498283 
 5980000   0.10254689 
 5990000  0.092741384 
 6000000  0.096060849 
 6010000    0.1020319 
 6020000   0.10216013 
 6030000  0.099958976 
 6040000   0.10596116 
 6050000  0.093802146 
 6060000    0.1081993 
 6070000   0.10547896 
 6080000    0.1017798 
 6090000   0.10136606 
 6100000   0.10151827 
 6110000   0.10746419 
 6120000   0.10477539 
 6130000   0.10754843 
 6140000  0.094361367 
 6150000   0.10008694 
 6160000   0.10006836 
 6170000  0.096586034 
 6180000   0.10333707 
 6190000  0.098879511 
 6200000   0.10206268 
 6210000   0.10547994 
 6220000   0.10280549 
 6230000    0.0971695 
 6240000  0.095674928 
 6250000   0.10093918 
 6260000   0.10332633 
 6270000  0.095242678 
 6280000   0.10388835 
 6290000    0.1025578 
 6300000   0.09627994 
 6310000  0.092054834 
 6320000   0.10120972 
 6330000    0.1136752 
 6340000  0.095063031 
 6350000   0.10226156 
 6360000   0.09948229 
 6370000   0.10093258 
 6380000  0.097141094 
 6390000  0.098040068 
 6400000  0.095255882 
 6410000   0.11467107 
 6420000  0.092057958 
 6430000  0.099281601 
 6440000   0.10757696 
 6450000   0.10118444 
 6460000  0.096914783 
 6470000   0.10290907 
 6480000  0.096222022 
 6490000   0.10239256 
 6500000   0.10258359 
 6510000  0.092178366 
 6520000  0.097136434 
 6530000   0.10462107 
 6540000   0.10455393 
 6550000   0.10273881 
 6560000   0.10112783 
 6570000  0.099515539 
 6580000  0.097457307 
 6590000  0.093819207 
 6600000   0.10394733 
 6610000  0.094776673 
 6620000   0.10044517 
 6630000  0.095371526 
 6640000  0.097372078 
 6650000   0.10024814 
 6660000  0.090469479 
 6670000  0.097372323 
 6680000   0.10587296 
 6690000  0.098076397 
 6700000  0.099252302 
 6710000  0.099221231 
 6720000   0.10385526 
 6730000   0.11019819 
 6740000    0.1026125 
 6750000  0.094605259 
 6760000    0.1023374 
 6770000   0.10274171 
 6780000   0.10504305 
 6790000   0.10206988 
 6800000    0.1068024 
 6810000  0.099725434 
 6820000   0.10292691 
 6830000  0.096243765 
 6840000  0.098141173 
 6850000  0.098121095 
 6860000   0.10142848 
 6870000   0.10090734 
 6880000  0.098989927 
 6890000   0.10586492 
 6900000   0.10070179 
 6910000   0.10272079 
 6920000    0.1013783 
 6930000  0.095363393 
 6940000   0.10038157 
 6950000  0.095430554 
 6960000  0.099640664 
 6970000  0.091576084 
 6980000  0.093408311 
 6990000  0.099736797 
 7000000  0.092299391 
 7010000   0.10143362 
 7020000   0.10206914 
 7030000  0.098048366 
 7040000   0.09563148 
 7050000   0.10441053 
 7060000  0.093258213 
 7070000  0.098407343 
 7080000   0.10830674 
 7090000  0.098630292 
 7100000  0.087273867 
 7110000   0.10084898 
 7120000  0.099121411 
 7130000   0.10954921 
 7140000   0.10135686 
 7150000  0.095551269 
 7160000   0.10049983 
 7170000  0.098934903 
 7180000   0.10218518 
 7190000  0.099157712 
 7200000   0.10558952 
 7210000   0.10885019 
 7220000  0.097534928 
 7230000   0.10077968 
 7240000    0.1030825 
 7250000  0.096095041 
 7260000   0.10241671 
 7270000  0.097553629 
 7280000  0.098775985 
 7290000   0.10286016 
 7300000   0.10215614 
 7310000    0.1021667 
 7320000   0.10289987 
 7330000    0.1010522 
 7340000   0.10816539 
 7350000  0.097752016 
 7360000   0.10264521 
 7370000   0.10080833 
 7380000   0.10131938 
 7390000  0.095949498 
 7400000   0.10422708 
 7410000   0.10613022 
 7420000  0.095997467 
 7430000   0.10737695 
 7440000  0.094351652 
 7450000   0.10226605 
 7460000  0.097785776 
 7470000   0.10811567 
 7480000   0.10205729 
 7490000  0.097929996 
 7500000  0.096218346 
 7510000   0.10027616 
 7520000  0.096882203 
 7530000   0.10152031 
 7540000  0.098636713 
 7550000  0.098164769 
 7560000   0.10797861 
 7570000   0.10162793 
 7580000   0.10257292 
 7590000   0.10469538 
 7600000  0.095474799 
 7610000    0.1025302 
 7620000   0.09799744 
 7630000   0.10364365 
 7640000   0.10026052 
 7650000  0.099901565 
 7660000   0.10447778 
 7670000   0.10001188 
 7680000   0.10366599 
 7690000  0.095283347 
 7700000  0.095936369 
 7710000   0.10960739 
 7720000   0.10404887 
 7730000   0.10518782 
 7740000   0.10423053 
 7750000   0.10498086 
 7760000   0.10577929 
 7770000   0.10113007 
 7780000   0.10321289 
 7790000  0.095528109 
 7800000  0.097169986 
 7810000   0.10408117 
 7820000   0.10406388 
 7830000    0.1000837 
 7840000   0.10200438 
 7850000  0.095382264 
 7860000  0.097319318 
 7870000    0.1013901 
 7880000   0.11257825 
 7890000  0.097632324 
 7900000   0.10011867 
 7910000   0.10306123 
 7920000  0.097093522 
 7930000   0.10034097 
 7940000  0.098790249 
 7950000   0.10091625 
 7960000  0.099896443 
 7970000  0.099210005 
 7980000  0.097264606 
 7990000  0.097090593 
 8000000  0.098925077 
 8010000   0.10655093 
 8020000   0.10239759 
 8030000    0.1025948 
 8040000  0.095703622 
 8050000  0.094809866 
 8060000  0.097897408 
 8070000  0.091571695 
 8080000   0.10283306 
 8090000   0.10086055 
 8100000   0.10764018 
 8110000   0.10141952 
 8120000   0.10000085 
 8130000   0.10001871 
 8140000   0.10795562 
 8150000   0.10297016 
 8160000  0.098213991 
 8170000     0.107266 
 8180000    0.1013371 
 8190000   0.10161919 
 8200000  0.098362453 
 8210000     0.103909 
 8220000   0.10341786 
 8230000   0.09885677 
 8240000  0.096204759 
 8250000   0.10173484 
 8260000   0.10399035 
 8270000   0.10981334 
 8280000   0.10262795 
 8290000  0.097854272 
 8300000   0.10260822 
 8310000  0.096830435 
 8320000  0.093539034 
 8330000   0.10914512 
 8340000  0.092143742 
 8350000  0.095780402 
 8360000  0.094310028 
 8370000  0.099992882 
 8380000  0.093673127 
 8390000   0.10413385 
 8400000   0.10203575 
 8410000  0.094543182 
 8420000   0.10092356 
 8430000  0.096278835 
 8440000  0.095579137 
 8450000   0.10178445 
 8460000      0.10496 
 8470000   0.10139998 
 8480000  0.095046245 
 8490000  0.097890067 
 8500000  0.090122501 
 8510000   0.10715176 
 8520000  0.090867728 
 8530000   0.10432532 
 8540000  0.097548212 
 8550000  0.099584928 
 8560000  0.098477913 
 8570000  0.099920534 
 8580000   0.10391198 
 8590000  0.096987497 
 8600000  0.094277576 
 8610000  0.095966934 
 8620000    0.1054337 
 8630000  0.099026543 
 8640000  0.098320726 
 8650000   0.10743804 
 8660000  0.098906062 
 8670000  0.094650566 
 8680000  0.098309293 
 8690000  0.090463843 
 8700000   0.10237322 
 8710000  0.096639777 
 8720000  0.092641747 
 8730000  0.097158062 
 8740000  0.097283458 
 8750000   0.08983479 
 8760000  0.094341615 
 8770000   0.10220302 
 8780000   0.10945245 
 8790000  0.097931565 
 8800000  0.096616542 
 8810000   0.10487629 
 8820000  0.099818644 
 8830000   0.09908436 
 8840000   0.09969071 
 8850000   0.10002374 
 8860000   0.10031205 
 8870000    0.1025209 
 8880000   0.10706682 
 8890000   0.09308996 
 8900000   0.10243637 
 8910000  0.095546426 
 8920000   0.10626338 
 8930000   0.10583124 
 8940000  0.094798533 
 8950000   0.10394073 
 8960000   0.10212166 
 8970000   0.10203339 
 8980000   0.11419153 
 8990000   0.10270467 
 9000000   0.10363166 
 9010000  0.097394123 
 9020000   0.11353303 
 9030000  0.097699634 
 9040000  0.096312619 
 9050000  0.095966592 
 9060000   0.10177501 
 9070000   0.09929959 
 9080000  0.096792105 
 9090000   0.10469224 
 9100000  0.096371938 
 9110000  0.099574425 
 9120000   0.09895916 
 9130000   0.10104053 
 9140000   0.10147828 
 9150000     0.104309 
 9160000   0.10000462 
 9170000   0.10199304 
 9180000   0.10260502 
 9190000   0.10198466 
 9200000  0.090966742 
 9210000   0.10206288 
 9220000  0.095434647 
 9230000   0.10617039 
 9240000   0.10612671 
 9250000  0.091031734 
 9260000  0.090183121 
 9270000  0.096055422 
 9280000   0.10592258 
 9290000  0.099951768 
 9300000  0.099495053 
 9310000  0.095273975 
 9320000  0.099765851 
 9330000  0.099364283 
 9340000  0.098946368 
 9350000  0.099192221 
 9360000   0.10345644 
 9370000  0.093745953 
 9380000   0.10016762 
 9390000  0.095961569 
 9400000  0.098885473 
 9410000  0.095656136 
 9420000   0.10345229 
 9430000    0.1001434 
 9440000  0.099129329 
 9450000   0.10422452 
 9460000   0.10038447 
 9470000  0.099333981 
 9480000   0.10589115 
 9490000   0.10433567 
 9500000   0.11032586 
 9510000   0.10084594 
 9520000  0.098573366 
 9530000  0.099832536 
 9540000   0.10170988 
 9550000  0.099901804 
 9560000   0.10635315 
 9570000   0.10606521 
 9580000   0.10038686 
 9590000    0.1138184 
 9600000  0.096390364 
 9610000  0.098464333 
 9620000   0.10199178 
 9630000  0.098614151 
 9640000  0.099506754 
 9650000   0.10125883 
 9660000  0.087848353 
 9670000  0.087141209 
 9680000   0.10706644 
 9690000  0.090038248 
 9700000  0.096276986 
 9710000   0.10731039 
 9720000   0.10112633 
 9730000  0.098443824 
 9740000  0.096918618 
 9750000   0.10045003 
 9760000    0.1024284 
 9770000    0.0961529 
 9780000  0.095825485 
 9790000  0.097950728 
 9800000  0.098342024 
 9810000   0.10430248 
 9820000  0.099548112 
 9830000   0.10427625 
 9840000   0.10086279 
 9850000  0.099728073 
 9860000  0.095870459 
 9870000   0.10212353 
 9880000   0.10335258 
 9890000   0.10453174 
 9900000   0.10279284 
 9910000  0.097162792 
 9920000  0.095145133 
 9930000  0.096727959 
 9940000  0.099284052 
 9950000  0.097748633 
 9960000    0.1097078 
 9970000   0.10020221 
 9980000  0.095287292 
 9990000  0.099291564 
10000000  0.097458199 
10010000   0.10189945 
10020000   0.10909748 
10030000   0.10817928 
10040000   0.11047774 
10050000  0.096008581 
10060000   0.10017131 
10070000  0.099706648 
10080000  0.097372918 
10090000   0.10099603 
10100000   0.10073903 
10110000   0.09802176 
10120000  0.097235099 
10130000   0.10182256 
10140000   0.10246228 
10150000   0.10109315 
10160000  0.094500226 
10170000  0.093113982 
10180000   0.10468078 
10190000   0.10328376 
10200000   0.10565554 
10210000   0.10961085 
10220000  0.099221714 
10230000   0.10034141 
10240000   0.10134726 
10250000  0.097607107 
10260000   0.10652099 
10270000   0.10013067 
10280000   0.10151713 
10290000   0.10045993 
10300000  0.090608495 
10310000   0.10930287 
10320000  0.096618842 
10330000  0.096725331 
10340000  0.093632915 
10350000   0.10052482 
10360000  0.094879668 
10370000  0.097580717 
10380000  0.096140075 
10390000   0.10311428 
10400000   0.10128095 
10410000   0.10265896 
10420000   0.10025074 
10430000   0.10107914 
10440000  0.098965298 
10450000  0.096998627 
10460000  0.098091097 
10470000   0.10437677 
10480000  0.096067116 
10490000   0.10927403 
10500000  0.094707716 
10510000    0.0989885 
10520000   0.10272361 
10530000   0.10043181 
10540000   0.10286141 
10550000   0.10266766 
10560000   0.10817166 
10570000   0.10572499 
10580000  0.096222893 
10590000  0.096219552 
10600000    0.1049342 
10610000  0.092275153 
10620000   0.10351545 
10630000   0.11220971 
10640000  0.096161146 
10650000  0.092797952 
10660000  0.098611731 
10670000   0.10496083 
10680000  0.094752028 
10690000   0.10272617 
10700000  0.098530947 
10710000  0.097187065 
10720000   0.10397519 
10730000   0.10917793 
10740000  0.099998838 
10750000   0.10112337 
10760000  0.093073779 
10770000  0.095614202 
10780000  0.097476064 
10790000  0.090298137 
10800000   0.10281943 
10810000   0.10500762 
10820000  0.096785441 
10830000  0.098405563 
10840000  0.098210795 
10850000   0.10452012 
10860000   0.10493861 
10870000  0.099438559 
10880000  0.096391308 
10890000   0.10218852 
10900000   0.10777018 
10910000  0.093455529 
10920000   0.10457311 
10930000   0.11051589 
10940000  0.099581569 
10950000  0.092632511 
10960000   0.10448179 
10970000  0.098184074 
10980000   0.10791803 
10990000  0.099109319 
11000000  0.094884585 
11010000   0.10515008 
11020000   0.10501448 
11030000    0.1015266 
11040000   0.10536126 
11050000   0.10371654 
11060000   0.10169624 
11070000  0.098819118 
11080000   0.09967021 
11090000   0.10685043 
11100000   0.09123687 
11110000  0.097342254 
11120000  0.099203503 
11130000    0.1039486 
11140000   0.10629926 
11150000  0.099917056 
11160000  0.099750808 
11170000  0.097730513 
11180000  0.092171456 
11190000  0.093115455 
11200000   0.10026285 
11210000   0.10025628 
11220000  0.095780696 
11230000  0.098176224 
11240000  0.096178462 
11250000   0.11027705 
11260000  0.099033104 
11270000   0.10241545 
11280000   0.10245078 
11290000   0.10810973 
11300000   0.10541415 
11310000   0.10264519 
11320000   0.10245939 
11330000   0.10356972 
11340000   0.10155583 
11350000  0.099976916 
11360000  0.087761959 
11370000  0.090210253 
11380000   0.09910027 
11390000    0.0925774 
11400000  0.094914256 
11410000   0.10123532 
11420000  0.099212245 
11430000  0.098911835 
11440000  0.098845254 
11450000  0.098417285 
11460000   0.10057951 
11470000  0.095396843 
11480000   0.09424608 
11490000   0.10265417 
11500000  0.094897783 
11510000   0.10922655 
11520000   0.10280862 
11530000   0.10360687 
11540000   0.10389015 
11550000   0.10268584 
11560000   0.10068542 
11570000   0.10283624 
11580000   0.10032132 
11590000  0.097226125 
11600000   0.10203044 
11610000   0.09207667 
11620000    0.1033557 
11630000  0.096526858 
11640000     0.105686 
11650000   0.10003629 
11660000   0.10804696 
11670000  0.096470672 
11680000   0.10006302 
11690000  0.099669502 
11700000   0.10291525 
11710000   0.09809582 
11720000   0.10606173 
11730000   0.10150356 
11740000   0.10181317 
11750000   0.10513194 
11760000   0.10534587 
11770000  0.096288925 
11780000   0.10163513 
11790000   0.10101912 
11800000  0.099964904 
11810000   0.10080161 
11820000   0.10415252 
11830000  0.099973689 
11840000   0.11066037 
11850000  0.097688099 
11860000   0.10045943 
11870000  0.094583933 
11880000  0.096502137 
11890000    0.1065421 
11900000  0.096006502 
11910000  0.090248975 
11920000  0.097344834 
11930000  0.099108509 
11940000   0.10212741 
11950000    0.1109425 
11960000  0.093327003 
11970000  0.095658659 
11980000  0.094797796 
11990000   0.10400199 
12000000  0.098271147 
12010000   0.10231561 
12020000   0.10872498 
12030000   0.10267556 
12040000   0.10079621 
12050000   0.10074031 
12060000  0.086734488 
12070000    0.1049255 
12080000  0.093798384 
12090000   0.10333755 
12100000   0.10827814 
12110000  0.098699016 
12120000   0.10749125 
12130000  0.097141724 
12140000  0.095656375 
12150000   0.10121027 
12160000  0.095663126 
12170000   0.09479152 
12180000   0.10733393 
12190000  0.087382858 
12200000   0.10413831 
12210000    0.1053294 
12220000   0.10077332 
12230000   0.10244228 
12240000  0.091002816 
12250000  0.099828718 
12260000  0.095352135 
12270000  0.098738849 
12280000   0.10494448 
12290000  0.094957642 
12300000  0.094346721 
12310000   0.10571173 
12320000  0.094679722 
12330000   0.10037718 
12340000   0.10471268 
12350000  0.098570041 
12360000   0.10575961 
12370000   0.10319626 
12380000   0.10099257 
12390000  0.093337835 
12400000  0.099667607 
12410000    0.1004275 
12420000    0.1009377 
12430000  0.096317506 
12440000  0.094149837 
12450000   0.10265429 
12460000   0.10036069 
12470000  0.095329033 
12480000  0.099213821 
12490000  0.094452247 
12500000   0.10331587 
12510000  0.095515414 
12520000   0.10442317 
12530000  0.095923974 
12540000  0.098180773 
12550000   0.10893982 
12560000   0.10435003 
12570000  0.095435886 
12580000   0.10002981 
12590000   0.10361269 
12600000   0.10512477 
12610000  0.098323601 
12620000   0.10531441 
12630000  0.098497769 
12640000  0.098796242 
12650000  0.097397272 
12660000   0.10644682 
12670000   0.10161003 
12680000  0.098804395 
12690000   0.10756133 
12700000   0.10047181 
12710000   0.10362812 
12720000   0.10140104 
12730000    0.1001451 
12740000   0.10361562 
12750000   0.10817955 
12760000  0.095202832 
12770000   0.10154328 
12780000  0.094775275 
12790000   0.10748432 
12800000   0.10399858 
12810000  0.095297398 
12820000   0.10360694 
12830000   0.10320168 
12840000   0.10423589 
12850000   0.10206951 
12860000   0.10211248 
12870000   0.09582149 
12880000  0.097234447 
12890000   0.10250099 
12900000  0.099711648 
12910000   0.10765628 
12920000   0.10073826 
12930000    0.1007047 
12940000    0.1019087 
12950000   0.10240148 
12960000   0.10826455 
12970000  0.097925628 
12980000   0.10793382 
12990000   0.10347595 
13000000  0.097272198 
13010000   0.10143922 
13020000   0.10166616 
13030000   0.10284567 
13040000  0.094625847 
13050000  0.098465357 
13060000   0.11029233 
13070000   0.10497804 
13080000    0.1021458 
13090000  0.094132005 
13100000  0.092506021 
13110000   0.10233086 
13120000  0.092408298 
13130000  0.098001181 
13140000   0.10563798 
13150000  0.094980279 
13160000   0.10437406 
13170000    0.1076654 
13180000  0.097105254 
13190000   0.10084457 
13200000   0.10022201 
13210000   0.10100683 
13220000   0.10675574 
13230000  0.095050085 
13240000   0.10015492 
13250000  0.096471817 
13260000  0.094914728 
13270000  0.097185682 
13280000   0.10101016 
13290000   0.10390503 
13300000   0.10105161 
13310000  0.099397908 
13320000   0.10970292 
13330000  0.096869642 
13340000   0.10550092 
13350000    0.1064509 
13360000  0.096550358 
13370000   0.09912687 
13380000   0.09676603 
13390000   0.10596671 
13400000  0.099585396 
13410000  0.096088953 
13420000  0.092545409 
13430000  0.093522821 
13440000   0.10152795 
13450000  0.099188489 
13460000  0.090684294 
13470000  0.097565717 
13480000  0.090177441 
13490000  0.098185481 
13500000  0.099511828 
13510000   0.10348314 
13520000   0.10068861 
13530000  0.096859883 
13540000  0.097846183 
13550000  0.097048409 
13560000   0.10332819 
13570000   0.10222926 
13580000   0.09678718 
13590000   0.10417987 
13600000   0.09440369 
13610000  0.095809971 
13620000  0.096087226 
13630000   0.10108387 
13640000  0.093976524 
13650000   0.10094666 
13660000   0.10934589 
13670000  0.092626187 
13680000   0.10427375 
13690000   0.10136734 
13700000  0.097574662 
13710000   0.10346303 
13720000   0.10131465 
13730000  0.099440817 
13740000   0.10111701 
13750000   0.10610033 
13760000   0.09759594 
13770000    0.1004193 
13780000   0.10083185 
13790000   0.10284336 
13800000  0.097893257 
13810000   0.10012371 
13820000   0.10143917 
13830000   0.10275679 
13840000   0.10297439 
13850000  0.093457106 
13860000   0.10266289 
13870000   0.10183061 
13880000   0.09546055 
13890000   0.10158934 
13900000  0.091638843 
13910000  0.097838008 
13920000   0.10003377 
13930000   0.10171842 
13940000  0.098385404 
13950000  0.094268551 
13960000  0.099134306 
13970000   0.10151671 
13980000   0.10245799 
13990000   0.10362739 
14000000  0.097440179 
14010000   0.10501703 
14020000   0.10418695 
14030000   0.10307668 
14040000   0.10637679 
14050000  0.093286636 
14060000   0.10408949 
14070000   0.10526061 
14080000    0.1021551 
14090000  0.093492023 
14100000  0.092883889 
14110000  0.098752629 
14120000   0.10816468 
14130000   0.10254304 
14140000   0.10191678 
14150000   0.10240639 
14160000   0.10949841 
14170000  0.095571264 
14180000  0.094110833 
14190000   0.10875722 
14200000   0.10689943 
14210000   0.10093101 
14220000   0.10431351 
14230000   0.09518012 
14240000   0.10160469 
14250000   0.10576557 
14260000   0.10317358 
14270000   0.10685561 
14280000    0.1030369 
14290000   0.10099249 
14300000   0.11047531 
14310000  0.094152537 
14320000  0.093309496 
14330000   0.10245236 
14340000  0.093676409 
14350000   0.10415495 
14360000   0.10710467 
14370000   0.10006444 
14380000  0.092096258 
14390000  0.091603054 
14400000  0.091175101 
14410000   0.10234974 
14420000    0.0980134 
14430000   0.10879094 
14440000   0.11200117 
14450000    0.1028614 
14460000   0.10374658 
14470000   0.10868838 
14480000   0.10042366 
14490000  0.096937562 
14500000  0.097196387 
14510000  0.094709012 
14520000  0.095372598 
14530000   0.11239559 
14540000   0.10405813 
14550000  0.097511844 
14560000   0.10152843 
14570000   0.10841439 
14580000    0.1043625 
14590000   0.09690702 
14600000   0.10291122 
14610000   0.10389204 
14620000   0.10442941 
14630000   0.11027195 
14640000   0.10407131 
14650000   0.10374935 
14660000  0.098766983 
14670000  0.096679537 
14680000   0.11273583 
14690000    0.1099054 
14700000  0.096087485 
14710000  0.097464809 
14720000   0.10423259 
14730000   0.10083101 
14740000  0.090317099 
14750000   0.10960289 
14760000  0.090632966 
14770000   0.10143789 
14780000  0.096924867 
14790000  0.095662477 
14800000   0.10534499 
14810000   0.10825626 
14820000  0.094808398 
14830000   0.10104873 
14840000   0.10165451 
14850000   0.10361487 
14860000   0.09233536 
14870000  0.098674774 
14880000  0.094331891 
14890000   0.10773894 
14900000  0.098784547 
14910000   0.10371677 
14920000   0.10059114 
14930000    0.1009281 
14940000   0.10800712 
14950000   0.09454716 
14960000   0.10986493 
14970000   0.10590872 
14980000  0.099923737 
14990000   0.10003108 
15000000   0.10043903 
15010000   0.10842635 
15020000  0.092921457 
15030000  0.098652061 
15040000   0.10126139 
15050000   0.10572679 
15060000   0.10732815 
15070000  0.098204684 
15080000  0.093176274 
15090000  0.097294343 
15100000   0.10467548 
15110000  0.098774441 
15120000   0.09984401 
15130000   0.10178136 
15140000   0.10369456 
15150000  0.097842894 
15160000  0.098636564 
15170000   0.10631265 
15180000   0.10126536 
15190000  0.098206482 
15200000   0.10036743 
15210000   0.10167851 
15220000  0.098527547 
15230000  0.099300322 
15240000  0.091724496 
15250000   0.10224967 
15260000  0.096972915 
15270000   0.10664091 
15280000  0.091317967 
15290000  0.096836576 
15300000   0.10548834 
15310000   0.10165992 
15320000  0.097356787 
15330000   0.10311651 
15340000  0.098956211 
15350000   0.10071839 
15360000  0.093930311 
15370000  0.094119623 
15380000   0.10418478 
15390000  0.093905379 
15400000   0.10147012 
15410000  0.096855799 
15420000   0.10289797 
15430000  0.096244163 
15440000   0.10290078 
15450000  0.096724679 
15460000   0.10228218 
15470000   0.10107626 
15480000  0.095878507 
15490000  0.098531961 
15500000  0.096577907 
15510000   0.10600456 
15520000  0.096111421 
15530000   0.10646773 
15540000   0.10861203 
15550000  0.090458323 
15560000  0.092273284 
15570000  0.098182329 
15580000   0.09838243 
15590000  0.095878792 
15600000  0.090509637 
15610000    0.1049035 
15620000  0.097485963 
15630000  0.099102504 
15640000  0.093939622 
15650000   0.10536837 
15660000  0.098580301 
15670000   0.11052626 
15680000    0.1033885 
15690000  0.093726729 
15700000   0.11458515 
15710000   0.10357745 
15720000   0.10354713 
15730000   0.10198973 
15740000   0.10358859 
15750000  0.095593683 
15760000    0.1036369 
15770000  0.096434351 
15780000   0.10607943 
15790000  0.094053703 
15800000  0.098963716 
15810000   0.10338493 
15820000   0.10765529 
15830000   0.10276856 
15840000  0.096980906 
15850000   0.10867965 
15860000    0.1014383 
15870000   0.10694901 
15880000    0.1001378 
15890000  0.093349156 
15900000  0.099853371 
15910000  0.099660273 
15920000   0.10578375 
15930000   0.10062226 
15940000   0.10640929 
15950000   0.09701363 
15960000  0.099234894 
15970000    0.1021384 
15980000  0.098705136 
15990000  0.089819551 
16000000    0.1068562 
16010000  0.095062153 
16020000  0.095898394 
16030000  0.098408555 
16040000   0.10335389 
16050000   0.10100333 
16060000   0.10244336 
16070000  0.093615963 
16080000   0.10051945 
16090000  0.098568439 
16100000  0.097413998 
16110000  0.091012521 
16120000  0.099559248 
16130000   0.10128125 
16140000  0.099466374 
16150000   0.10679597 
16160000   0.10133354 
16170000   0.10489973 
16180000   0.10505924 
16190000  0.098105385 
16200000  0.090047104 
16210000    0.1018819 
16220000   0.11067268 
16230000   0.09680605 
16240000   0.10168373 
16250000   0.10297445 
16260000   0.10786084 
16270000   0.10618549 
16280000   0.10136834 
16290000   0.10697121 
16300000   0.10628895 
16310000  0.094663535 
16320000   0.10586721 
16330000  0.096905019 
16340000     0.102904 
16350000  0.096475784 
16360000   0.09813565 
16370000   0.10513449 
16380000   0.10099286 
16390000  0.098623189 
16400000    0.1082259 
16410000   0.10210037 
16420000   0.10324328 
16430000   0.10681438 
16440000   0.10353867 
16450000  0.099752408 
16460000   0.10821221 
16470000  0.096312541 
16480000   0.10307772 
16490000  0.098374215 
16500000   0.10192169 
16510000   0.10390846 
16520000  0.092217218 
16530000   0.09884776 
16540000  0.097635856 
16550000  0.098515291 
16560000  0.092956863 
16570000  0.095045639 
16580000  0.092292974 
16590000   0.10298872 
16600000  0.093125984 
16610000  0.096850286 
16620000  0.090416234 
16630000   0.09915209 
16640000  0.096136946 
16650000   0.10612417 
16660000   0.10441268 
16670000  0.099723783 
16680000  0.098555607 
16690000  0.092600713 
16700000   0.10231932 
16710000   0.10242753 
16720000   0.10244354 
16730000  0.093024846 
16740000  0.096669226 
16750000  0.096981444 
16760000   0.10190105 
16770000   0.10313071 
16780000  0.099628306 
16790000  0.098148981 
16800000   0.09557902 
16810000  0.089621994 
16820000   0.11179009 
16830000  0.099125203 
16840000   0.10276354 
16850000  0.096306224 
16860000  0.093501359 
16870000  0.098475722 
16880000    0.1062745 
16890000  0.098785752 
16900000   0.10288463 
16910000  0.097325937 
16920000  0.096918433 
16930000  0.092524597 
16940000    0.1013093 
16950000  0.097357853 
16960000  0.097897901 
16970000   0.10345636 
16980000   0.10387015 
16990000   0.10121544 
17000000   0.10928291 
17010000   0.10118417 
17020000   0.10005994 
17030000   0.10001906 
17040000   0.10281989 
17050000   0.10314831 
17060000  0.091568042 
17070000  0.095799067 
17080000  0.096308023 
17090000   0.10704667 
17100000  0.096666702 
17110000  0.095736329 
17120000  0.098090502 
17130000   0.10483629 
17140000   0.10078924 
17150000   0.10694255 
17160000   0.10702341 
17170000   0.09705372 
17180000   0.10844863 
17190000   0.10450876 
17200000   0.09842304 
17210000   0.10038146 
17220000  0.092924075 
17230000  0.098995409 
17240000   0.10700951 
17250000   0.10085722 
17260000   0.10372715 
17270000   0.09183871 
17280000   0.09663857 
17290000  0.098679388 
17300000   0.10421608 
17310000  0.095227645 
17320000  0.089015576 
17330000   0.10243446 
17340000    0.0972571 
17350000   0.10296159 
17360000   0.10341594 
17370000  0.094006551 
17380000   0.10338656 
17390000   0.10530186 
17400000   0.10524919 
17410000  0.095487459 
17420000    0.1020002 
17430000   0.10523487 
17440000   0.10255514 
17450000  0.097344372 
17460000  0.096801144 
17470000   0.10128153 
17480000   0.10234693 
17490000  0.099532715 
17500000   0.10592635 
17510000   0.11314232 
17520000   0.10513125 
17530000   0.09235708 
17540000   0.10491318 
17550000  0.095853648 
17560000   0.10727359 
17570000  0.095455697 
17580000  0.096629183 
17590000   0.10200473 
17600000   0.10208115 
17610000  0.096102761 
17620000   0.10098929 
17630000   0.10478995 
17640000        0.107 
17650000  0.096535952 
17660000  0.099574306 
17670000    0.1001092 
17680000  0.095056333 
17690000   0.10677056 
17700000   0.10730687 
17710000   0.10752681 
17720000  0.097000822 
17730000  0.098826084 
17740000  0.095452042 
17750000  0.092218691 
17760000   0.10141072 
17770000   0.10971133 
17780000   0.10187633 
17790000   0.10054033 
17800000   0.10196727 
17810000   0.10449493 
17820000   0.10058962 
17830000   0.10407071 
17840000   0.10296121 
17850000  0.099733057 
17860000  0.095020576 
17870000  0.097088567 
17880000   0.10020143 
17890000   0.10115333 
17900000   0.10580055 
17910000  0.096261407 
17920000  0.099851276 
17930000  0.093650272 
17940000   0.10334142 
17950000  0.099913452 
17960000   0.10058096 
17970000  0.097973104 
17980000   0.10204007 
17990000   0.10467835 
18000000   0.11028175 
18010000  0.095649064 
18020000  0.093792333 
18030000  0.098181101 
18040000   0.10418802 
18050000  0.097021128 
18060000    0.1021223 
18070000  0.097546799 
18080000  0.099626955 
18090000  0.092525565 
18100000   0.10052673 
18110000  0.092381571 
18120000  0.096240997 
18130000  0.098512653 
18140000  0.099016637 
18150000   0.10632419 
18160000  0.097206863 
18170000  0.097152263 
18180000  0.094702367 
18190000  0.099918699 
18200000  0.097491341 
18210000  0.095829959 
18220000  0.094135258 
18230000  0.098276864 
18240000   0.10026032 
18250000  0.088755577 
18260000    0.1013884 
18270000  0.096045015 
18280000   0.10306623 
18290000   0.10636108 
18300000   0.10008579 
18310000  0.096475079 
18320000   0.10535603 
18330000  0.099580129 
18340000   0.10338227 
18350000  0.097402925 
18360000  0.099071646 
18370000   0.10638867 
18380000   0.10031888 
18390000   0.10095025 
18400000  0.097907053 
18410000   0.10099932 
18420000   0.10685317 
18430000   0.10884314 
18440000   0.10721925 
18450000   0.10417986 
18460000   0.10485665 
18470000  0.096040685 
18480000  0.097839722 
18490000  0.095582686 
18500000   0.10432452 
18510000   0.11393378 
18520000   0.10155986 
18530000  0.096743589 
18540000   0.10534225 
18550000  0.098089489 
18560000   0.10196602 
18570000  0.098357755 
18580000  0.096735328 
18590000  0.092518309 
18600000  0.097161817 
18610000    0.1018911 
18620000   0.10745004 
18630000   0.10605619 
18640000   0.10151594 
18650000   0.10327699 
18660000  0.096842397 
18670000  0.096407828 
18680000  0.094019137 
18690000   0.11499039 
18700000   0.09989395 
18710000    0.1032656 
18720000   0.09741379 
18730000   0.10210804 
18740000     0.100925 
18750000   0.10368823 
18760000   0.10454534 
18770000   0.10441889 
18780000    0.1040628 
18790000  0.095782291 
18800000  0.093356637 
18810000  0.095121904 
18820000  0.097242047 
18830000   0.10345892 
18840000   0.10504605 
18850000   0.10085645 
18860000   0.10314604 
18870000   0.10274732 
18880000   0.10690618 
18890000  0.099863547 
18900000   0.10122525 
18910000  0.098629834 
18920000  0.095450951 
18930000   0.10074284 
18940000   0.10028678 
18950000  0.095581933 
18960000   0.10179607 
18970000  0.095915611 
18980000  0.092007102 
18990000   0.11057774 
19000000   0.10563317 
19010000  0.098076449 
19020000  0.097364336 
19030000   0.10157355 
19040000  0.091941026 
19050000  0.094734994 
19060000    0.1123842 
19070000   0.11299886 
19080000   0.10280334 
19090000   0.10721455 
19100000  0.097997957 
19110000  0.093840786 
19120000  0.092110588 
19130000  0.098794168 
19140000   0.10049636 
19150000   0.10449662 
19160000   0.10175134 
19170000  0.096114002 
19180000  0.095055721 
19190000  0.092005695 
19200000  0.099639746 
19210000  0.097789458 
19220000    0.0926107 
19230000   0.10414866 
19240000   0.10175001 
19250000   0.10397399 
19260000  0.099950034 
19270000  0.099956461 
19280000  0.099153426 
19290000   0.10291621 
19300000  0.093994205 
19310000  0.095127121 
19320000  0.091224187 
19330000   0.10782605 
19340000   0.10125042 
19350000   0.10096758 
19360000   0.10588484 
19370000   0.10054487 
19380000  0.095807149 
19390000   0.10361488 
19400000   0.11043349 
19410000  0.099588333 
19420000   0.10076836 
19430000   0.10810414 
19440000  0.099572018 
19450000  0.098772721 
19460000  0.095952417 
19470000   0.10073659 
19480000   0.10136073 
19490000  0.094392563 
19500000   0.10234793 
19510000   0.10395248 
19520000   0.10692861 
19530000   0.10813307 
19540000    0.1061219 
19550000  0.096582717 
19560000  0.089250103 
19570000  0.097516052 
19580000  0.098900223 
19590000   0.10456118 
19600000   0.10272957 
19610000   0.09637871 
19620000   0.10029487 
19630000   0.10252974 
19640000  0.098625337 
19650000  0.099843523 
19660000   0.09473445 
19670000  0.090732655 
19680000  0.094569705 
19690000  0.098784381 
19700000   0.10693023 
19710000  0.095987974 
19720000   0.10610898 
19730000  0.094358217 
19740000    0.1019175 
19750000   0.10204072 
19760000   0.10027242 
19770000  0.099074317 
19780000   0.10008091 
19790000  0.096142376 
19800000   0.10184401 
19810000    0.1041475 
19820000   0.10435459 
19830000   0.10181538 
19840000   0.11385085 
19850000  0.098189312 
19860000   0.10787796 
19870000  0.095103657 
19880000  0.097587025 
19890000  0.096989227 
19900000  0.098374432 
19910000   0.10252167 
19920000     0.101594 
19930000   0.10394877 
19940000   0.10410917 
19950000   0.10096416 
19960000   0.10206941 
19970000  0.096017167 
19980000   0.10302456 
19990000  0.098081129 
20000000   0.10435987 
20010000   0.10046201 
20020000  0.095619131 
20030000  0.094141695 
20040000   0.10417039 
20050000  0.093974614 
20060000   0.10097387 
20070000  0.093373279 
20080000   0.10115477 
20090000  0.099936286 
20100000  0.098275884 
20110000   0.10216998 
20120000  0.099819303 
20130000   0.09829546 
20140000   0.10210572 
20150000   0.10324987 
20160000   0.10348288 
20170000   0.09403195 
20180000   0.10390634 
20190000   0.10609059 
20200000   0.10368876 
20210000   0.10277177 
20220000   0.10834274 
20230000  0.094877649 
20240000   0.10367699 
20250000    0.1002327 
20260000  0.094439699 
20270000   0.10378671 
20280000   0.10270007 
20290000   0.10481099 
20300000  0.097532847 
20310000   0.10490698 
20320000   0.10184909 
20330000   0.10933379 
20340000  0.098204696 
20350000   0.10477982 
20360000  0.099344598 
20370000   0.11216444 
20380000   0.10278578 
20390000  0.092090633 
20400000  0.099507933 
20410000  0.098639296 
20420000  0.095739271 
20430000   0.10386818 
20440000  0.092888399 
20450000   0.10573306 
20460000  0.097902316 
20470000  0.098760826 
20480000  0.095172985 
20490000  0.099880603 
20500000   0.10656965 
20510000   0.09410224 
20520000   0.10189177 
20530000   0.09483592 
20540000   0.10098581 
20550000   0.10493381 
20560000  0.099035153 
20570000  0.088065211 
20580000  0.091497569 
20590000  0.093584657 
20600000  0.099280613 
20610000  0.093074547 
20620000   0.10441803 
20630000     0.106909 
20640000    0.1001274 
20650000  0.098370522 
20660000   0.09971741 
20670000   0.10011931 
20680000   0.10322997 
20690000   0.10603721 
20700000  0.092067708 
20710000  0.093999764 
20720000   0.10276499 
20730000   0.10185978 
20740000   0.10385035 
20750000   0.10046703 
20760000  0.099699395 
20770000    0.1009709 
20780000   0.10379904 
20790000   0.10782173 
20800000   0.10724617 
20810000   0.10130205 
20820000   0.10049918 
20830000  0.097416942 
20840000   0.10153452 
20850000    0.1009745 
20860000  0.099948962 
20870000  0.099269157 
20880000  0.096767552 
20890000  0.096529218 
20900000  0.096354294 
20910000  0.099981928 
20920000   0.10276972 
20930000  0.096400644 
20940000  0.094526203 
20950000   0.10320164 
20960000  0.096274724 
20970000  0.098259604 
20980000   0.09438529 
20990000   0.10307781 
21000000   0.10706316 
21010000   0.10291928 
21020000   0.10073802 
21030000    0.1033246 
21040000   0.10305948 
21050000   0.10020965 
21060000   0.10127953 
21070000   0.09782378 
21080000   0.10318992 
21090000    0.1014474 
21100000  0.094332894 
21110000  0.097793871 
21120000   0.10193446 
21130000  0.097887941 
21140000   0.10031276 
21150000   0.10815965 
21160000   0.10221905 
21170000   0.10457761 
21180000  0.099699862 
21190000  0.097233355 
21200000   0.10373338 
21210000   0.10155202 
21220000   0.10807368 
21230000   0.10360804 
21240000   0.10186395 
21250000  0.093214643 
21260000  0.095071228 
21270000   0.10271382 
21280000    0.1003829 
21290000  0.097214708 
21300000   0.10361393 
21310000   0.11055945 
21320000   0.10563375 
21330000  0.096047419 
21340000  0.095330679 
21350000   0.11298998 
21360000  0.094163251 
21370000  0.096890941 
21380000   0.10628255 
21390000   0.09907556 
21400000   0.10347111 
21410000   0.10259669 
21420000   0.09847437 
21430000  0.097550978 
21440000   0.10273156 
21450000  0.097874839 
21460000  0.099075045 
21470000   0.10397484 
21480000  0.097718043 
21490000  0.097448868 
21500000   0.10211108 
21510000  0.098920557 
21520000   0.10468456 
21530000  0.097412388 
21540000  0.095858926 
21550000  0.089635745 
21560000   0.10138528 
21570000   0.10790424 
21580000   0.10850791 
21590000  0.093434727 
21600000   0.10943549 
21610000   0.10456086 
21620000  0.098562206 
21630000  0.099116885 
21640000    0.1031652 
21650000   0.10048837 
21660000  0.095885769 
21670000   0.10215451 
21680000  0.094878347 
21690000  0.088487867 
21700000  0.099386474 
21710000  0.094836572 
21720000   0.10563333 
21730000   0.10243409 
21740000   0.10599919 
21750000  0.099949162 
21760000   0.10494438 
21770000  0.095572984 
21780000   0.10181072 
21790000   0.10946784 
21800000  0.099688087 
21810000   0.10019611 
21820000   0.10843715 
21830000  0.099479209 
21840000  0.098205896 
21850000  0.094008299 
21860000   0.10644165 
21870000   0.10382691 
21880000  0.098527736 
21890000    0.1031875 
21900000   0.10563634 
21910000   0.11293872 
21920000   0.09679187 
21930000  0.095651626 
21940000   0.10247627 
21950000   0.10495539 
21960000  0.099776358 
21970000   0.10203826 
21980000   0.10766415 
21990000  0.098395363 
22000000   0.10634125 
22010000   0.10620904 
22020000   0.11046453 
22030000  0.092279071 
22040000    0.1029728 
22050000   0.10517189 
22060000  0.097611198 
22070000    0.1086083 
22080000  0.095249803 
22090000  0.098848858 
22100000  0.094328931 
22110000  0.097279912 
22120000   0.10863627 
22130000  0.094078479 
22140000  0.093617478 
22150000  0.097081915 
22160000   0.10116414 
22170000  0.099266721 
22180000   0.10727192 
22190000   0.09714903 
22200000  0.098709679 
22210000   0.10029009 
22220000   0.10255247 
22230000   0.10569278 
22240000   0.10455171 
22250000  0.094327498 
22260000  0.091953345 
22270000   0.10445543 
22280000  0.095798193 
22290000   0.10182887 
22300000   0.10822602 
22310000  0.098994921 
22320000   0.10549081 
22330000  0.094132302 
22340000   0.10861317 
22350000  0.099145934 
22360000   0.10920739 
22370000   0.10429958 
22380000  0.095231274 
22390000   0.10063479 
22400000  0.096128295 
22410000  0.097185619 
22420000  0.098773485 
22430000   0.10503169 
22440000  0.097747758 
22450000  0.097208123 
22460000   0.10129208 
22470000  0.089549175 
22480000   0.10318577 
22490000   0.10794891 
22500000   0.10448445 
22510000  0.094176192 
22520000    0.1004745 
22530000  0.092839113 
22540000  0.098511944 
22550000   0.10213932 
22560000   0.10521866 
22570000   0.10429255 
22580000   0.10176381 
22590000   0.10881365 
22600000  0.097407011 
22610000   0.10867648 
22620000   0.10656092 
22630000  0.097934371 
22640000  0.094796098 
22650000  0.098966104 
22660000   0.10052668 
22670000   0.10302556 
22680000  0.094502111 
22690000   0.09826665 
22700000  0.099807748 
22710000   0.10671133 
22720000   0.10220488 
22730000   0.10340588 
22740000  0.095646656 
22750000  0.097701122 
22760000  0.095387268 
22770000   0.10282537 
22780000   0.10836432 
22790000   0.10804638 
22800000   0.10200033 
22810000  0.094235955 
22820000   0.09571368 
22830000  0.097990801 
22840000    0.1049332 
22850000    0.1037949 
22860000  0.098210219 
22870000   0.10010871 
22880000  0.092217208 
22890000   0.10913013 
22900000   0.10770626 
22910000   0.10139378 
22920000   0.10277392 
22930000   0.10226708 
22940000  0.099264238 
22950000  0.099864845 
22960000  0.099836164 
22970000  0.097605337 
22980000  0.094708575 
22990000   0.10599405 
23000000  0.094335603 
23010000   0.10357606 
23020000  0.098754151 
23030000   0.10148461 
23040000  0.096175289 
23050000  0.099245423 
23060000  0.088891599 
23070000  0.099054052 
23080000   0.10232308 
23090000   0.10381435 
23100000   0.10494708 
23110000   0.10172879 
23120000  0.097610725 
23130000   0.10032536 
23140000   0.10468394 
23150000  0.099323731 
23160000  0.099730709 
23170000   0.10224305 
23180000  0.095152721 
23190000  0.097980818 
23200000   0.11684434 
23210000  0.094523612 
23220000  0.096959953 
23230000   0.09716349 
23240000   0.09592333 
23250000  0.097207268 
23260000  0.094058604 
23270000  0.091225149 
23280000  0.093596978 
23290000  0.092296201 
23300000  0.096469474 
23310000    0.1000351 
23320000  0.095774706 
23330000   0.10391872 
23340000   0.09228205 
23350000  0.096923921 
23360000   0.10014053 
23370000   0.10374351 
23380000   0.10004137 
23390000  0.098169283 
23400000  0.089798638 
23410000  0.097471899 
23420000   0.10395225 
23430000   0.10127631 
23440000   0.10269989 
23450000  0.095587255 
23460000  0.095763703 
23470000  0.097394607 
23480000  0.099004218 
23490000  0.097954026 
23500000   0.10133598 
23510000  0.093983724 
23520000  0.092722093 
23530000  0.099082112 
23540000   0.10213745 
23550000  0.098442469 
23560000  0.093031672 
23570000  0.097461605 
23580000   0.10817376 
23590000   0.10227983 
23600000  0.097960871 
23610000   0.10534216 
23620000   0.10196645 
23630000   0.10112023 
23640000  0.094408245 
23650000  0.099546056 
23660000  0.096980294 
23670000   0.10087422 
23680000  0.094645426 
23690000  0.095226029 
23700000   0.10424521 
23710000  0.099787857 
23720000  0.097174952 
23730000   0.10040764 
23740000  0.094456013 
23750000   0.10114253 
23760000   0.10185392 
23770000   0.10089515 
23780000   0.10363973 
23790000  0.097096372 
23800000  0.092809337 
23810000  0.095591067 
23820000   0.10613003 
23830000   0.10214903 
23840000  0.098748624 
23850000    0.1039536 
23860000   0.10488127 
23870000    0.1010522 
23880000   0.10257086 
23890000   0.10120167 
23900000   0.10409586 
23910000  0.096994527 
23920000    0.1003185 
23930000  0.097304855 
23940000   0.10392313 
23950000  0.093383876 
23960000   0.10213758 
23970000  0.095452297 
23980000  0.092419743 
23990000  0.097691872 
24000000   0.10296626 
24010000   0.10479444 
24020000   0.10169698 
24030000   0.10130594 
24040000    0.0993268 
24050000   0.09916833 
24060000  0.095391775 
24070000  0.098129415 
24080000  0.098119223 
24090000   0.09804047 
24100000   0.10163575 
24110000   0.10517945 
24120000  0.095691582 
24130000   0.10451103 
24140000   0.10107421 
24150000   0.10710601 
24160000   0.10527195 
24170000   0.10095138 
24180000  0.097118425 
24190000  0.096589406 
24200000    0.1027451 
24210000   0.10776127 
24220000  0.094221916 
24230000   0.10375385 
24240000   0.10038294 
24250000   0.10525346 
24260000  0.097128841 
24270000  0.098291468 
24280000  0.095747414 
24290000  0.098531461 
24300000  0.097854586 
24310000  0.092258129 
24320000  0.099872872 
24330000  0.093973805 
24340000    0.1037903 
24350000   0.10424029 
24360000  0.099830964 
24370000   0.10321056 
24380000  0.096700852 
24390000  0.099591424 
24400000    0.1055487 
24410000   0.10322665 
24420000  0.095105005 
24430000    0.1022674 
24440000  0.096810505 
24450000  0.099363816 
24460000     0.106496 
24470000   0.10723698 
24480000   0.10472962 
24490000   0.11112485 
24500000   0.10534619 
24510000   0.10235653 
24520000    0.1108866 
24530000   0.10430294 
24540000  0.095724925 
24550000  0.098142022 
24560000   0.10363329 
24570000  0.098586001 
24580000  0.097387585 
24590000    0.1037936 
24600000  0.093479586 
24610000    0.0955011 
24620000   0.10467578 
24630000   0.10093021 
24640000  0.098979671 
24650000   0.09364226 
24660000  0.099428361 
24670000  0.093729332 
24680000  0.095129482 
24690000  0.094223448 
24700000   0.09657566 
24710000    0.1015628 
24720000  0.098419536 
24730000   0.11039284 
24740000   0.10193351 
24750000   0.10685035 
24760000   0.10054008 
24770000  0.096228358 
24780000   0.10614506 
24790000  0.098424834 
24800000   0.10840135 
24810000  0.099489657 
24820000  0.092778212 
24830000  0.099850386 
24840000  0.099318836 
24850000  0.096144096 
24860000  0.090884241 
24870000   0.10110735 
24880000  0.093100729 
24890000  0.099729976 
24900000   0.10810742 
24910000   0.10207489 
24920000  0.097923156 
24930000  0.099369316 
24940000  0.096458864 
24950000   0.10198334 
24960000  0.097029735 
24970000   0.10473245 
24980000  0.095007208 
24990000   0.10310872 
25000000  0.094421835 
25010000   0.10452818 
25020000   0.10416758 
25030000    0.0934084 
25040000     0.102052 
25050000  0.095164233 
25060000   0.10246795 
25070000  0.090070533 
25080000    0.0944948 
25090000  0.096978203 
25100000   0.09338559 
25110000   0.11435001 
25120000   0.10418729 
25130000   0.10339235 
25140000  0.097696263 
25150000  0.097342375 
25160000   0.10770686 
25170000  0.095316266 
25180000   0.10490541 
25190000  0.099111605 
25200000   0.10216125 
25210000  0.098937577 
25220000   0.10103315 
25230000  0.097798961 
25240000    0.1022994 
25250000  0.095590369 
25260000   0.10041806 
25270000   0.10093136 
25280000  0.092042029 
25290000  0.096913984 
25300000   0.10249367 
25310000   0.10730977 
25320000  0.096255045 
25330000   0.10223224 
25340000  0.097247888 
25350000  0.092566814 
25360000  0.091679428 
25370000   0.10117118 
25380000  0.096917595 
25390000   0.10016482 
25400000   0.10082729 
25410000    0.0983234 
25420000   0.10067631 
25430000   0.10192887 
25440000   0.10590781 
25450000   0.10542323 
25460000  0.098248995 
25470000     0.103461 
25480000   0.10484948 
25490000  0.099343679 
25500000   0.10701536 
25510000   0.10499893 
25520000   0.10745458 
25530000   0.10136402 
25540000   0.10670429 
25550000   0.10833993 
25560000  0.095412802 
25570000   0.10487866 
25580000   0.10162431 
25590000   0.10315194 
25600000   0.10179076 
25610000  0.093019005 
25620000  0.093544644 
25630000   0.10800104 
25640000   0.10522882 
25650000  0.095009812 
25660000  0.099461241 
25670000   0.10282198 
25680000  0.097601047 
25690000   0.10385586 
25700000   0.10903272 
25710000  0.094800495 
25720000  0.091684262 
25730000   0.10090412 
25740000   0.09336682 
25750000  0.095370337 
25760000   0.10028036 
25770000   0.10231704 
25780000  0.096628862 
25790000     0.103471 
25800000   0.10414846 
25810000   0.10432444 
25820000  0.098457342 
25830000  0.095786826 
25840000  0.095626199 
25850000  0.096482249 
25860000   0.10567581 
25870000  0.092305531 
25880000   0.10825577 
25890000   0.10127371 
25900000  0.097806834 
25910000    0.1019136 
25920000   0.10213964 
25930000  0.096608713 
25940000    0.1041148 
25950000  0.098751445 
25960000  0.095584231 
25970000   0.10791064 
25980000  0.094714968 
25990000   0.10327355 
26000000   0.10796493 
26010000   0.10664718 
26020000   0.10071344 
26030000   0.10295303 
26040000   0.10395402 
26050000   0.09920026 
26060000  0.093995965 
26070000  0.098779556 
26080000  0.098066243 
26090000  0.099722726 
26100000   0.10536297 
26110000   0.10500849 
26120000   0.09967962 
26130000    0.1020093 
26140000  0.095001456 
26150000  0.095936145 
26160000   0.10379264 
26170000  0.099087923 
26180000  0.098036768 
26190000  0.097306605 
26200000  0.093192943 
26210000   0.10768241 
26220000   0.10111013 
26230000  0.097980179 
26240000  0.090455329 
26250000   0.10621664 
26260000   0.10087227 
26270000   0.11245816 
26280000  0.097785704 
26290000  0.098705815 
26300000   0.09488714 
26310000   0.10243806 
26320000  0.098703982 
26330000   0.09786272 
26340000   0.10020203 
26350000  0.094757079 
26360000   0.10424072 
26370000   0.10411696 
26380000   0.10102423 
26390000  0.094859408 
26400000  0.098849363 
26410000  0.098335351 
26420000  0.095554759 
26430000  0.097413979 
26440000  0.097638115 
26450000  0.097510629 
26460000   0.10143244 
26470000  0.087270556 
26480000   0.11260131 
26490000  0.098071917 
26500000   0.10164217 
26510000   0.09759544 
26520000   0.10555865 
26530000  0.096620587 
26540000   0.10560724 
26550000   0.10774272 
26560000  0.099196574 
26570000  0.099659499 
26580000  0.098262773 
26590000  0.098016099 
26600000  0.094119359 
26610000   0.10059112 
26620000  0.095541332 
26630000    0.0990805 
26640000   0.10279696 
26650000   0.10249081 
26660000   0.09797193 
26670000    0.1000393 
26680000  0.099364615 
26690000   0.10990476 
26700000  0.091365884 
26710000    0.0963519 
26720000   0.10141283 
26730000   0.09148507 
26740000  0.098003857 
26750000   0.10086408 
26760000  0.099331479 
26770000   0.10319813 
26780000   0.10378807 
26790000   0.10321105 
26800000  0.092795115 
26810000  0.090662045 
26820000  0.098077266 
26830000  0.093017364 
26840000   0.10218487 
26850000   0.10641556 
26860000   0.10769537 
26870000  0.097752116 
26880000   0.09629364 
26890000   0.10072771 
26900000   0.10076777 
26910000  0.092303969 
26920000   0.10409104 
26930000  0.098352067 
26940000  0.098939735 
26950000  0.097269471 
26960000  0.097299401 
26970000  0.092105995 
26980000    0.1021294 
26990000   0.10487519 
27000000   0.10364072 
27010000   0.10599973 
27020000   0.10442154 
27030000   0.10298739 
27040000   0.10912947 
27050000   0.10327848 
27060000  0.096391107 
27070000  0.096863471 
27080000   0.10393595 
27090000  0.099701321 
27100000   0.10229673 
27110000   0.10167817 
27120000  0.099474757 
27130000   0.10149001 
27140000     0.109049 
27150000  0.096214796 
27160000   0.10804531 
27170000  0.099151629 
27180000  0.096358368 
27190000   0.09784069 
27200000  0.095378688 
27210000  0.096101038 
27220000   0.10585176 
27230000  0.097881574 
27240000  0.095130387 
27250000   0.10234417 
27260000   0.10100032 
27270000  0.099962501 
27280000   0.11429475 
27290000   0.10139637 
27300000   0.10764991 
[...]
372190000   0.10296765 
372200000  0.099539401 
372210000  0.093080285 
372220000  0.099609906 
372230000    0.1016331 
372240000  0.088487952 
372250000   0.10373813 
372260000   0.10427952 
372270000    0.1008252 
372280000   0.10452194 
372290000   0.10171047 
372300000   0.10224214 
372310000  0.098460877 
372320000  0.097897922 
372330000  0.098567776 
372340000  0.099994321 
372350000   0.10498376 
372360000  0.093349956 
372370000   0.10319008 
372380000   0.10211529 
372390000  0.099293545 
372400000   0.10553655 
372410000  0.094588158 
372420000    0.1081983 
372430000   0.10153608 
372440000  0.092818068 
372450000   0.09984172 
372460000   0.10445262 
372470000    0.1028869 
372480000   0.10626375 
372490000   0.10959446 
372500000   0.09323814 
372510000  0.099172977 
372520000   0.10536866 
372530000   0.11084776 
372540000  0.088730738 
372550000  0.099609196 
372560000  0.097192277 
372570000  0.098423491 
372580000  0.088860891 
372590000   0.10122777 
372600000   0.10169921 
372610000  0.093124625 
372620000   0.10108975 
372630000   0.10190566 
372640000  0.094726043 
372650000  0.098300749 
372660000  0.095450575 
372670000  0.094289645 
372680000  0.097916565 
372690000   0.10487126 
372700000   0.10947579 
372710000  0.097090059 
372720000  0.098927703 
372730000   0.10069839 
372740000  0.095387472 
372750000   0.10749439 
372760000   0.10061088 
372770000    0.1012024 
372780000  0.098772963 
372790000   0.10455713 
372800000  0.096685146 
372810000  0.094502765 
372820000  0.099735983 
372830000   0.09753974 
372840000   0.10971278 
372850000   0.09612157 
372860000   0.10709812 
372870000   0.10655656 
372880000   0.10865378 
372890000   0.10462443 
372900000  0.091809172 
372910000  0.094103431 
372920000   0.10543988 
372930000   0.10163489 
372940000  0.086630722 
372950000   0.10032007 
372960000   0.10397733 
372970000   0.10063638 
372980000   0.10102106 
372990000  0.092101202 
373000000   0.10382184 
373010000   0.10260128 
373020000  0.091498748 
373030000  0.099756299 
373040000   0.10083387 
373050000   0.10505563 
373060000  0.096733996 
373070000   0.10144872 
373080000   0.10796084 
373090000  0.093984991 
373100000   0.10279881 
373110000   0.10766482 
373120000   0.10889439 
373130000  0.098840074 
373140000   0.10234243 
373150000   0.10853283 
373160000  0.096600287 
373170000   0.10401534 
373180000   0.10547546 
373190000  0.099635101 
373200000   0.10485426 
373210000  0.098740308 
373220000   0.10078278 
373230000  0.098482023 
373240000  0.096300575 
373250000   0.10168138 
373260000  0.099568184 
373270000   0.10062232 
373280000   0.10544384 
373290000  0.098957025 
373300000  0.094966688 
373310000  0.098333805 
373320000   0.10354379 
373330000   0.10319488 
373340000   0.10793229 
373350000   0.10740579 
373360000  0.099660777 
373370000  0.095338273 
373380000   0.10198907 
373390000   0.10220081 
373400000  0.097699851 
373410000  0.097786556 
373420000   0.10328328 
373430000   0.11088911 
373440000  0.098332909 
373450000  0.094670327 
373460000   0.10307865 
373470000  0.093986551 
373480000   0.10560533 
373490000    0.0997294 
373500000   0.10574666 
373510000   0.10240021 
373520000   0.10302789 
373530000  0.098877879 
373540000  0.097390704 
373550000   0.10401548 
373560000   0.11042733 
373570000   0.10199656 
373580000   0.10141317 
373590000   0.10282132 
373600000  0.092004374 
373610000  0.087785599 
373620000   0.10259736 
373630000   0.10168671 
373640000   0.10050516 
373650000   0.10625107 
373660000  0.096365389 
373670000   0.10416085 
373680000   0.10487987 
373690000  0.094171166 
373700000  0.097169413 
373710000   0.09827557 
373720000   0.10217373 
373730000  0.098270266 
373740000     0.103879 
373750000  0.092627292 
373760000  0.097710045 
373770000   0.10607792 
373780000   0.10682884 
373790000   0.10349193 
373800000   0.10214516 
373810000   0.10084333 
373820000  0.096242647 
373830000  0.092256156 
373840000   0.10831796 
373850000   0.10244005 
373860000  0.099920503 
373870000  0.099734023 
373880000    0.1029931 
373890000  0.096567932 
373900000  0.096997601 
373910000  0.097554807 
373920000   0.10109788 
373930000   0.10153749 
373940000   0.10231867 
373950000  0.088065812 
373960000  0.098615211 
373970000  0.093568555 
373980000   0.10055957 
373990000    0.1020068 
374000000   0.10117939 
374010000  0.098991104 
374020000   0.10123907 
374030000   0.09847178 
374040000  0.095919866 
374050000   0.10501993 
374060000  0.094437989 
374070000       0.1029 
374080000   0.10434152 
374090000   0.10273158 
374100000   0.10498961 
374110000    0.1080166 
374120000   0.10242528 
374130000  0.098325574 
374140000   0.10299166 
374150000  0.099550029 
374160000   0.10562754 
374170000   0.10382483 
374180000   0.10662023 
374190000   0.11114338 
374200000   0.10321494 
374210000   0.10097335 
374220000   0.10119595 
374230000  0.098588915 
374240000  0.097741495 
374250000   0.10272763 
374260000    0.1100755 
374270000   0.10356823 
374280000   0.10733485 
374290000   0.10176128 
374300000  0.090988173 
374310000   0.10145365 
374320000   0.10023782 
374330000  0.091007723 
374340000   0.10691453 
374350000  0.094418289 
374360000  0.093042136 
374370000   0.10171724 
374380000   0.10073697 
374390000   0.10287092 
374400000   0.10023422 
374410000   0.10400289 
374420000  0.092767704 
374430000   0.10282228 
374440000  0.093793283 
374450000   0.09705448 
374460000    0.1025548 
374470000   0.10013004 
374480000   0.10151862 
374490000  0.093138791 
374500000  0.093719886 
374510000   0.10387676 
374520000  0.098169154 
374530000  0.098845862 
374540000  0.099113999 
374550000  0.095676027 
374560000   0.10076614 
374570000   0.10295276 
374580000  0.099350097 
374590000  0.096934428 
374600000  0.099494819 
374610000  0.098752575 
374620000   0.10680578 
374630000  0.099228776 
374640000   0.10083918 
374650000  0.092502206 
374660000   0.11295202 
374670000    0.1029714 
374680000  0.099155841 
374690000   0.10397089 
374700000   0.10684678 
374710000  0.098961156 
374720000  0.099574084 
374730000  0.097551786 
374740000  0.099382069 
374750000  0.096600726 
374760000    0.1051714 
374770000  0.097640529 
374780000   0.10186115 
374790000  0.096061315 
374800000  0.098571809 
374810000    0.1070918 
374820000  0.096365194 
374830000   0.10412702 
374840000  0.098909518 
374850000   0.10291179 
374860000   0.10664471 
374870000    0.1080397 
374880000  0.096054485 
374890000    0.1044973 
374900000   0.10384581 
374910000   0.10276653 
374920000  0.096295154 
374930000   0.10935719 
374940000   0.10985346 
374950000   0.10031324 
374960000  0.094496219 
374970000  0.096554826 
374980000  0.098244467 
374990000  0.094433986 
375000000  0.095311452 
375010000   0.10836147 
375020000  0.095690825 
375030000   0.10748907 
375040000    0.1061122 
375050000   0.10406508 
375060000    0.1065411 
375070000   0.10580093 
375080000    0.1038599 
375090000  0.096964383 
375100000  0.087509558 
375110000   0.10542938 
375120000   0.10107975 
375130000    0.1057422 
375140000   0.10303306 
375150000   0.10468604 
375160000   0.10756724 
375170000  0.099602848 
375180000   0.10338322 
375190000   0.10290704 
375200000  0.096937556 
375210000  0.099057954 
375220000   0.10285954 
375230000  0.094576802 
375240000   0.10798959 
375250000  0.094494069 
375260000   0.09976147 
375270000   0.10084732 
375280000   0.10179459 
375290000   0.09780637 
375300000  0.091517595 
375310000  0.099728137 
375320000    0.1043045 
375330000  0.093568763 
375340000  0.099641526 
375350000  0.096516602 
375360000  0.097555311 
375370000   0.10252008 
375380000   0.10461398 
375390000  0.096970364 
375400000  0.099510242 
375410000   0.10647227 
375420000  0.093411872 
375430000  0.093876411 
375440000  0.095699694 
375450000   0.10308884 
375460000   0.11265218 
375470000   0.10301442 
375480000   0.10872115 
375490000   0.10173276 
375500000  0.091620602 
375510000   0.10650684 
375520000  0.099649964 
375530000   0.10214279 
375540000   0.11161766 
375550000   0.10115426 
375560000   0.10251363 
375570000   0.10704083 
375580000  0.097021647 
375590000  0.095605298 
375600000   0.10776454 
375610000   0.10345638 
375620000   0.10720763 
375630000   0.10078239 
375640000  0.098764012 
375650000   0.10216389 
375660000  0.099112306 
375670000   0.10566565 
375680000   0.10389888 
375690000   0.10792234 
375700000   0.10515695 
375710000   0.10449587 
375720000    0.1060842 
375730000   0.10374556 
375740000   0.10405677 
375750000   0.10085026 
375760000   0.10077626 
375770000   0.10236149 
375780000   0.10325227 
375790000  0.094772471 
375800000   0.10526359 
375810000   0.10336065 
375820000   0.10131078 
375830000  0.097434663 
375840000   0.10066979 
375850000   0.10166801 
375860000   0.10036745 
375870000   0.09404213 
375880000  0.099916755 
375890000  0.095373383 
375900000   0.10009491 
375910000   0.10828917 
375920000   0.10166149 
375930000  0.097575311 
375940000  0.098421252 
375950000  0.095402944 
375960000  0.098116309 
375970000  0.096001784 
375980000  0.097864799 
375990000  0.097029719 
376000000  0.098482752 
376010000  0.098782826 
376020000   0.10692846 
376030000  0.094672551 
376040000   0.10101374 
376050000  0.096046732 
376060000  0.094771428 
376070000  0.097099203 
376080000    0.1054502 
376090000  0.093232752 
376100000  0.093760682 
376110000  0.099646039 
376120000   0.10616304 
376130000   0.10016109 
376140000   0.10117885 
376150000  0.093621784 
376160000  0.093473567 
376170000   0.09721475 
376180000   0.10963559 
376190000  0.099936278 
376200000   0.10000149 
376210000  0.097503604 
376220000  0.096343025 
376230000  0.096998691 
376240000   0.10291061 
376250000   0.10241625 
376260000   0.10551817 
376270000   0.10313384 
376280000  0.093488487 
376290000   0.10750222 
376300000   0.10491096 
376310000  0.089503606 
376320000   0.10227489 
376330000  0.096342019 
376340000  0.099287575 
376350000   0.11010654 
376360000  0.097645621 
376370000  0.097761306 
376380000  0.098686827 
376390000  0.097782877 
376400000   0.10155281 
376410000   0.10706479 
376420000  0.092346856 
376430000  0.098275876 
376440000   0.11126653 
376450000  0.095036031 
376460000   0.10607307 
376470000   0.10887354 
376480000  0.096064667 
376490000   0.10460825 
376500000   0.10551989 
376510000   0.10301701 
376520000  0.094884554 
376530000  0.096862778 
376540000   0.10000797 
376550000  0.095552141 
376560000  0.099231012 
376570000  0.094753056 
376580000   0.10815186 
376590000   0.10267455 
376600000  0.092679993 
376610000   0.10545587 
376620000  0.091396311 
376630000  0.092021837 
376640000  0.091678772 
376650000   0.10074585 
376660000   0.10483102 
376670000   0.10274006 
376680000   0.10495908 
376690000  0.097651181 
376700000  0.099107612 
376710000   0.10074698 
376720000   0.10277505 
376730000  0.096619635 
376740000  0.099719334 
376750000  0.098253789 
376760000   0.10173349 
376770000  0.091964019 
376780000  0.094738951 
376790000   0.10742937 
376800000  0.097095438 
376810000   0.10010615 
376820000   0.10862725 
376830000  0.098947072 
376840000  0.095275434 
376850000   0.10220831 
376860000  0.091865889 
376870000   0.10056394 
376880000  0.098371056 
376890000   0.10262224 
376900000  0.098320068 
376910000  0.095604964 
376920000  0.099830608 
376930000   0.10458999 
376940000   0.09500928 
376950000   0.10651458 
376960000   0.10193044 
376970000  0.093381636 
376980000  0.096909319 
376990000  0.089786461 
377000000   0.10007354 
377010000   0.10040326 
377020000   0.10117749 
377030000  0.098188003 
377040000  0.098168021 
377050000   0.10413762 
377060000  0.095120506 
377070000  0.096560997 
377080000   0.10001556 
377090000  0.099379051 
377100000   0.10429561 
377110000  0.092779893 
377120000   0.10261958 
377130000   0.10128024 
377140000  0.097932605 
377150000   0.11114268 
377160000  0.097128049 
377170000   0.10482937 
377180000  0.093684433 
377190000   0.10417433 
377200000     0.095795 
377210000   0.10463912 
377220000   0.09875438 
377230000  0.095312967 
377240000  0.099635962 
377250000   0.10448748 
377260000  0.098523462 
377270000  0.095861749 
377280000   0.09929973 
377290000   0.10476118 
377300000   0.11097831 
377310000  0.099641775 
377320000   0.10208576 
377330000   0.10253485 
377340000   0.10419066 
377350000   0.11167968 
377360000  0.097173823 
377370000  0.099322214 
377380000  0.099953209 
377390000   0.10012112 
377400000   0.10084142 
377410000   0.11216995 
377420000  0.095977818 
377430000   0.10682054 
377440000   0.10131007 
377450000   0.10414254 
377460000   0.10390678 
377470000   0.10531411 
377480000   0.10002478 
377490000  0.097176111 
377500000   0.10859736 
377510000  0.098895328 
377520000   0.09716012 
377530000  0.097378645 
377540000   0.10018844 
377550000  0.099524769 
377560000   0.10064854 
377570000  0.097850554 
377580000   0.10356798 
377590000  0.097523224 
377600000   0.10513925 
377610000   0.09432837 
377620000  0.099075632 
377630000  0.095682556 
377640000   0.09683039 
377650000  0.097923611 
377660000    0.1066533 
377670000  0.094195703 
377680000   0.10336792 
377690000   0.10161324 
377700000   0.10513531 
377710000   0.10332477 
377720000  0.099175046 
377730000  0.099524579 
377740000   0.10128514 
377750000  0.095615286 
377760000  0.096713258 
377770000   0.10539432 
377780000     0.107678 
377790000  0.095563542 
377800000   0.10057315 
377810000  0.096742402 
377820000  0.099646759 
377830000   0.10675493 
377840000   0.09504429 
377850000   0.10399351 
377860000   0.10442196 
377870000   0.10126271 
377880000   0.10142832 
377890000   0.10110286 
377900000  0.099486982 
377910000   0.10180458 
377920000   0.10194184 
377930000   0.10327527 
377940000  0.097624992 
377950000   0.10129395 
377960000   0.10432374 
377970000   0.10480367 
377980000   0.10030591 
377990000  0.099545643 
378000000    0.1061195 
378010000  0.099150442 
378020000  0.095735733 
378030000  0.095782965 
378040000   0.10056228 
378050000  0.098272319 
378060000    0.1011728 
378070000  0.098400306 
378080000   0.10202028 
378090000  0.096897067 
378100000  0.097873746 
378110000   0.10461654 
378120000  0.092753907 
378130000  0.096737516 
378140000   0.10180224 
378150000  0.098517762 
378160000  0.094499109 
378170000   0.10427652 
378180000  0.094552357 
378190000  0.090003983 
378200000  0.096794776 
378210000   0.10395742 
378220000  0.099753168 
378230000  0.097747492 
378240000   0.10040948 
378250000  0.095309182 
378260000  0.097469066 
378270000   0.10066726 
378280000  0.099788156 
378290000   0.10032191 
378300000   0.10489693 
378310000  0.097281436 
378320000   0.10031698 
378330000  0.096298936 
378340000  0.098468634 
378350000  0.098751735 
378360000  0.096656147 
378370000   0.10542766 
378380000  0.092879025 
378390000   0.11149799 
378400000   0.10675738 
378410000   0.10546845 
378420000  0.095254141 
378430000   0.10030951 
378440000   0.10328672 
378450000   0.10351813 
378460000   0.10085502 
378470000  0.096591147 
378480000  0.093315347 
378490000   0.10123726 
378500000  0.099784524 
378510000  0.097598794 
378520000   0.11057082 
378530000  0.094287211 
378540000   0.10107855 
378550000  0.094676895 
378560000   0.10640205 
378570000   0.10163496 
378580000   0.10159589 
378590000  0.096830589 
378600000  0.087845145 
378610000   0.11500054 
378620000   0.10042513 
378630000  0.097781054 
378640000   0.10066936 
378650000   0.10286132 
378660000   0.10507153 
378670000   0.10218014 
378680000   0.10131281 
378690000   0.10534062 
378700000   0.10413087 
378710000  0.099723398 
378720000   0.10580646 
378730000   0.10098482 
378740000   0.10203629 
378750000    0.1007362 
378760000   0.10786194 
378770000   0.10217628 
378780000  0.097758903 
378790000   0.10745927 
378800000  0.099859969 
378810000  0.097680131 
378820000    0.0976513 
378830000   0.10047124 
378840000   0.10317489 
378850000   0.10150123 
378860000  0.097197783 
378870000  0.090409718 
378880000   0.10268744 
378890000   0.10397148 
378900000  0.098791669 
378910000   0.10661414 
378920000   0.10764551 
378930000   0.10485967 
378940000   0.10217723 
378950000   0.10032426 
378960000   0.10032249 
378970000  0.094871303 
378980000   0.10550901 
378990000   0.10628622 
379000000   0.10488477 
379010000  0.099593698 
379020000  0.096332786 
379030000  0.096198401 
379040000  0.098132923 
379050000  0.097259459 
379060000   0.10280187 
379070000   0.10139436 
379080000  0.094212793 
379090000  0.098517202 
379100000  0.095901242 
379110000  0.097725718 
379120000  0.093229238 
379130000   0.10941142 
379140000    0.1062785 
379150000   0.10876167 
379160000  0.098033225 
379170000  0.098881021 
379180000    0.1058305 
379190000   0.10203469 
379200000  0.098889448 
379210000   0.10601299 
379220000    0.1001734 
379230000   0.10145298 
379240000   0.10377169 
379250000   0.10633901 
379260000   0.10054599 
379270000  0.094443024 
379280000  0.099792816 
379290000   0.10194516 
379300000    0.1068079 
379310000   0.10184968 
379320000   0.10136028 
379330000   0.10381489 
379340000   0.10976316 
379350000   0.10213995 
379360000   0.10898459 
379370000  0.094347898 
379380000  0.092729733 
379390000  0.098637293 
379400000  0.094907145 
379410000   0.10673329 
379420000   0.10316752 
379430000   0.10169473 
379440000  0.097228309 
379450000  0.095179719 
379460000   0.10550774 
379470000   0.10010181 
379480000   0.10369623 
379490000   0.09473017 
379500000   0.09709454 
379510000   0.10441193 
379520000   0.10219072 
379530000   0.10636016 
379540000  0.099486043 
379550000   0.10307699 
379560000    0.1022138 
379570000   0.10464694 
379580000   0.10398207 
379590000   0.10447242 
379600000   0.10526843 
379610000  0.091566007 
379620000  0.096200635 
379630000   0.10119598 
379640000   0.10216333 
379650000   0.09443862 
379660000  0.096668128 
379670000  0.099408065 
379680000   0.10117455 
379690000   0.11230083 
379700000   0.10046194 
379710000   0.10618843 
379720000  0.096859567 
379730000  0.096005512 
379740000   0.10324212 
379750000  0.096021736 
379760000   0.10146376 
379770000  0.099502367 
379780000    0.1089371 
379790000  0.099500911 
379800000   0.10264704 
379810000   0.10475745 
379820000   0.10078557 
379830000  0.099400919 
379840000   0.10111701 
379850000   0.10218211 
379860000  0.096041999 
379870000   0.11098164 
379880000   0.10689499 
379890000   0.10138574 
379900000   0.10000811 
379910000  0.098929202 
379920000  0.097726322 
379930000   0.10147456 
379940000   0.10010049 
379950000   0.10880882 
379960000   0.10199571 
379970000  0.099828231 
379980000    0.1090087 
379990000   0.10796904 
380000000  0.098875431 
Loop time of 460978 on 1 procs for 200000000 steps with 278 atoms

Performance: 37485.514 tau/day, 433.860 timesteps/s
100.0% CPU use with 1 MPI tasks x no OpenMP threads

MPI task timing breakdown:
Section |  min time  |  avg time  |  max time  |%varavg| %total
---------------------------------------------------------------
Pair    | 4.4442e+05 | 4.4442e+05 | 4.4442e+05 |   0.0 | 96.41
Bond    | 3289.9     | 3289.9     | 3289.9     |   0.0 |  0.71
Neigh   | 21.381     | 21.381     | 21.381     |   0.0 |  0.00
Comm    | 904.27     | 904.27     | 904.27     |   0.0 |  0.20
Output  | 2.3883     | 2.3883     | 2.3883     |   0.0 |  0.00
Modify  | 12169      | 12169      | 12169      |   0.0 |  2.64
Other   |            | 167.5      |            |       |  0.04

Nlocal:        278.000 ave         278 max         278 min
Histogram: 1 0 0 0 0 0 0 0 0 0
Nghost:        184.000 ave         184 max         184 min
Histogram: 1 0 0 0 0 0 0 0 0 0
Neighs:        14270.0 ave       14270 max       14270 min
Histogram: 1 0 0 0 0 0 0 0 0 0

Total # of neighbors = 14270
Ave neighs/atom = 51.330935
Ave special neighs/atom = 5.7410072
Neighbor list builds = 48149
Dangerous builds = 0
Total wall time: 256:05:04
