# LAMMPS data file
186 atoms
186 ellipsoids
182 bonds

4 atom types
1 bond types

# System size
0.000000 42.000000 xlo xhi
0.000000 42.000000 ylo yhi
0.000000 42.000000 zlo zhi

Masses

1 3.1575
2 3.1575
3 3.1575
4 3.1575

# Atom-ID, type, position, molecule-ID, ellipsoid flag, density
Atoms

1 3 -4.028657913208008e+00  3.112571716308594e+00  1.126679325103760e+01 1 1 1
2 2 -4.246779918670654e+00  2.947701454162598e+00  1.080427360534668e+01 1 1 1
3 4 -4.414655208587646e+00  3.000534296035767e+00  1.029662704467773e+01 1 1 1
4 1 -4.419209480285645e+00  3.211825847625732e+00  9.802640914916992e+00 1 1 1
5 3 -4.209496021270752e+00  3.462141752243042e+00  9.375956535339355e+00 1 1 1
6 2 -3.815952777862549e+00  3.617188692092896e+00  9.044626235961914e+00 1 1 1
7 1 -3.338867664337158e+00  3.578911066055298e+00  8.800497055053711e+00 1 1 1
8 2 -2.910233020782471e+00  3.322656154632568e+00  8.602257728576660e+00 1 1 1
9 2 -2.643691778182983e+00  2.906640768051147e+00  8.391187667846680e+00 1 1 1
10 4 -2.591271877288818e+00  2.449716806411743e+00  8.113410949707031e+00 1 1 1
11 1 -2.723580121994019e+00  2.086318254470825e+00  7.740421295166016e+00 1 1 1
12 2 -2.941232204437256e+00  1.915331959724426e+00  7.279892444610596e+00 1 1 1
13 2 -3.112224102020264e+00  1.962543725967407e+00  6.772731304168701e+00 1 1 1
14 2 -3.122353076934814e+00  2.170849561691284e+00  6.277569293975830e+00 1 1 1
15 3 -2.918631553649902e+00  2.421939373016357e+00  5.848486900329590e+00 1 1 1
16 4 -2.529099225997925e+00  2.581257343292236e+00  5.514441490173340e+00 1 1 1
17 1 -2.052605628967285e+00  2.549071550369263e+00  5.268311500549316e+00 1 1 1
18 2 -1.620858907699585e+00  2.298478841781616e+00  5.069540023803711e+00 1 1 1
19 3 -1.348744988441467e+00  1.885493993759155e+00  4.859632968902588e+00 1 1 1
20 1 -1.290330529212952e+00  1.427837967872620e+00  4.584253311157227e+00 1 1 1
21 3 -1.418570995330811e+00  1.060222625732422e+00  4.214003562927246e+00 1 1 1
22 1 -1.635567545890808e+00  8.831325173377991e-01  3.755493402481079e+00 1 1 1
23 1 -1.809611082077026e+00  9.246791005134583e-01  3.248855829238892e+00 1 1 1
24 3 -1.825371623039246e+00  1.129906773567200e+00  2.752566099166870e+00 1 1 1
25 3 -1.627520799636841e+00  1.381674647331238e+00  2.321078538894653e+00 1 1 1
26 3 -1.242114663124084e+00  1.545150279998779e+00  1.984298229217529e+00 1 1 1
27 2 -7.662762403488159e-01  1.519070029258728e+00  1.736137151718140e+00 1 1 1
28 1 -2.780044674873352e-01 -3.211913824081421e+00 -2.513186335563660e-01 1 1 1
29 1  1.125407367944717e-01 -3.577429056167603e+00 -3.018100857734680e-01 1 1 1
30 1  5.208442807197571e-01 -3.883182287216187e+00 -1.330487132072449e-01 1 1 1
31 4  8.114756941795349e-01 -4.155011653900146e+00  2.279688566923141e-01 1 1 1
32 1  8.936594724655151e-01 -4.431643962860107e+00  6.811805367469788e-01 1 1 1
33 3  7.559542059898376e-01 -4.749971866607666e+00  1.091518759727478e+00 1 1 1
34 4  4.702327549457550e-01 -5.131052970886230e+00  1.340191364288330e+00 1 1 1
35 3  1.648066043853760e-01 -5.572103500366211e+00  1.369827866554260e+00 1 1 1
36 3 -2.462665736675262e-02 -6.047554969787598e+00  1.206278920173645e+00 1 1 1
37 3 -6.339816376566887e-03 -6.518780708312988e+00  9.487783908843994e-01 1 1 1
38 2  2.322630733251572e-01 -6.948730945587158e+00  7.322686910629272e-01 1 1 1
39 3  6.203050613403320e-01 -7.316070556640625e+00  6.761064529418945e-01 1 1 1
40 3  1.030059337615967e+00 -7.623227596282959e+00  8.387355804443359e-01 1 1 1
41 4  1.325498819351196e+00 -7.895507812500000e+00  1.195478916168213e+00 1 1 1
42 1  1.414128065109253e+00 -8.171454429626465e+00  1.647904872894287e+00 1 1 1
43 4  1.281831502914429e+00 -8.488237380981445e+00  2.061238527297974e+00 1 1 1
44 2  9.986727237701416e-01 -8.867494583129883e+00  2.315554618835449e+00 1 1 1
45 1  6.919180750846863e-01 -9.307134628295898e+00  2.351334810256958e+00 1 1 1
46 4  4.976790845394135e-01 -9.782116889953613e+00  2.192097187042236e+00 1 1 1
47 2  5.095826983451843e-01 -1.025401115417480e+01  1.935442090034485e+00 1 1 1
48 3  1.382023811340332e+00 -1.292394351959229e+01  2.143319845199585e+00 2 1 1
49 2  9.979165196418762e-01 -1.255386161804199e+01  2.207888364791870e+00 2 1 1
50 4  7.676357030868530e-01 -1.212160873413086e+01  2.428785324096680e+00 2 1 1
51 1  7.588918209075928e-01 -1.164940547943115e+01  2.684976339340210e+00 2 1 1
52 3  9.555028080940247e-01 -1.117465972900391e+01  2.842025995254517e+00 2 1 1
53 2  1.262891054153442e+00 -1.073573589324951e+01  2.803171157836914e+00 2 1 1
54 1  1.544737696647644e+00 -1.035739612579346e+01  2.546049594879150e+00 2 1 1
55 3  1.674240112304688e+00 -1.004137611389160e+01  2.131256103515625e+00 2 1 1
56 1  1.582450151443481e+00 -9.765753746032715e+00  1.679262638092041e+00 2 1 1
57 4  1.284639120101929e+00 -9.493244171142578e+00  1.324688792228699e+00 2 1 1
58 3  8.742507100105286e-01 -9.185373306274414e+00  1.165131568908691e+00 2 1 1
59 1  4.874592721462250e-01 -8.817121505737305e+00  1.224110722541809e+00 2 1 1
60 4  2.515907287597656e-01 -8.386395454406738e+00  1.442108869552612e+00 2 1 1
61 1  2.365264445543289e-01 -7.914843082427979e+00  1.699198007583618e+00 2 1 1
62 2  4.283326268196106e-01 -7.439615726470947e+00  1.860599517822266e+00 2 1 1
63 2  7.344535589218140e-01 -6.999267578125000e+00  1.827891588211060e+00 2 1 1
64 3  1.018923759460449e+00 -6.619102954864502e+00  1.576391696929932e+00 2 1 1
65 2  1.153894066810608e+00 -6.301545619964600e+00  1.164548516273499e+00 2 1 1
66 2  1.068548083305359e+00 -6.025259494781494e+00  7.117118835449219e-01 2 1 1
67 2  7.754812836647034e-01 -5.753210067749023e+00  3.528265655040741e-01 2 1 1
68 1  3.664221167564392e-01 -5.446758270263672e+00  1.871255785226822e-01 2 1 1
69 2 -2.287128567695618e-02 -5.080330848693848e+00  2.404574900865555e-01 2 1 1
70 4 -2.642701864242554e-01 -4.651151657104492e+00  4.554597437381744e-01 2 1 1
71 1 -2.856585979461670e-01 -4.180276393890381e+00  7.133350968360901e-01 2 1 1
72 4 -9.865969419479370e-02 -3.704599857330322e+00  8.790148496627808e-01 2 1 1
73 4  2.060108631849289e-01 -3.262843370437622e+00  8.524424433708191e-01 2 1 1
74 4  4.929226636886597e-01 -2.880849123001099e+00  6.066092252731323e-01 2 1 1
75 3 -2.132953703403473e-01 -1.198237657546997e+00 -3.920699596405029e+00 2 1 1
76 4 -3.758663237094879e-01 -9.661616086959839e-01 -4.377205848693848e+00 2 1 1
77 1 -3.124487400054932e-01 -7.056717872619629e-01 -4.842831134796143e+00 2 1 1
78 2 -4.851586371660233e-02 -5.509292483329773e-01 -5.284507751464844e+00 2 1 1
79 3  3.142757713794708e-01 -5.959151983261108e-01 -5.678266525268555e+00 2 1 1
80 2  6.367133259773254e-01 -8.587322235107422e-01 -6.018333911895752e+00 2 1 1
81 4  7.949162125587463e-01 -1.274725794792175e+00 -6.319344520568848e+00 2 1 1
82 2  7.274004220962524e-01 -1.721043825149536e+00 -6.610762596130371e+00 2 1 1
83 2  4.584322273731232e-01 -2.063319921493530e+00 -6.925709724426270e+00 2 1 1
84 2  8.881724625825882e-02 -2.206707954406738e+00 -7.288349628448486e+00 2 1 1
85 1 -2.424035966396332e-01 -2.131925582885742e+00 -7.704742431640625e+00 2 1 1
86 3 -4.107764065265656e-01 -1.902578234672546e+00 -8.160522460937500e+00 2 1 1
87 3 -3.537162244319916e-01 -1.640992522239685e+00 -8.626361846923828e+00 2 1 1
88 4 -9.428085386753082e-02 -1.481742382049561e+00 -9.069094657897949e+00 2 1 1
89 4  2.675856947898865e-01 -1.520521998405457e+00 -9.464365959167480e+00 2 1 1
90 1  5.930190086364746e-01 -1.777790784835815e+00 -9.805811882019043e+00 2 1 1
91 4  7.570003271102905e-01 -2.191004991531372e+00 -1.010755825042725e+01 2 1 1
92 3  6.958509087562561e-01 -2.638366937637329e+00 -1.039878749847412e+01 2 1 1
93 3  4.314201176166534e-01 -2.985111951828003e+00 -1.071268272399902e+01 2 1 1
94 2  6.278747320175171e-02 -3.134699583053589e+00 -1.107381629943848e+01 2 1 1
95 3 -4.628046452999115e-01 -3.307157039642334e+00 -1.383552360534668e+01 3 1 1
96 2 -2.858183681964874e-01 -3.532222747802734e+00 -1.338087081909180e+01 3 1 1
97 4  4.978298023343086e-02 -3.598629474639893e+00 -1.296656990051270e+01 3 1 1
98 1  4.178812503814697e-01 -3.445948362350464e+00 -1.260618400573730e+01 3 1 1
99 3  6.800158023834229e-01 -3.096997976303101e+00 -1.229280567169189e+01 3 1 1
100 2  7.379736304283142e-01 -2.649154663085938e+00 -1.200167179107666e+01 3 1 1
101 1  5.711240172386169e-01 -2.237369537353516e+00 -1.169954776763916e+01 3 1 1
102 3  2.442288845777512e-01 -1.982891201972961e+00 -1.135739803314209e+01 3 1 1
103 2 -1.171299219131470e-01 -1.947208642959595e+00 -1.096137809753418e+01 3 1 1
104 2 -3.742904663085938e-01 -2.108685016632080e+00 -1.051812171936035e+01 3 1 1
105 1 -4.281657636165619e-01 -2.370778322219849e+00 -1.005218696594238e+01 3 1 1
106 4 -2.569083273410797e-01 -2.598721981048584e+00 -9.596773147583008e+00 3 1 1
107 1  7.579743117094040e-02 -2.670724630355835e+00 -9.181079864501953e+00 3 1 1
108 1  4.449364244937897e-01 -2.524236917495728e+00 -8.819191932678223e+00 3 1 1
109 2  7.116465568542480e-01 -2.179715633392334e+00 -8.504776954650879e+00 3 1 1
110 2  7.759826183319092e-01 -1.732861280441284e+00 -8.213451385498047e+00 3 1 1
111 4  6.148826479911804e-01 -1.318246245384216e+00 -7.912080287933350e+00 3 1 1
112 3  2.909332811832428e-01 -1.058197379112244e+00 -7.571324825286865e+00 3 1 1
113 3 -7.140778005123138e-02 -1.016316413879395e+00 -7.176808834075928e+00 3 1 1
114 3 -3.331023454666138e-01 -1.173322558403015e+00 -6.734599590301514e+00 3 1 1
115 1 -3.933444321155548e-01 -1.434373259544373e+00 -6.268864154815674e+00 3 1 1
116 3 -2.278670221567154e-01 -1.665096521377563e+00 -5.812717437744141e+00 3 1 1
117 2  1.018440723419189e-01 -1.742645740509033e+00 -5.395631313323975e+00 3 1 1
118 3  4.719101190567017e-01 -1.602363348007202e+00 -5.032232284545898e+00 3 1 1
119 4  7.431148290634155e-01 -1.262353658676147e+00 -4.716759681701660e+00 3 1 1
120 1  8.138072490692139e-01 -8.165955543518066e-01 -4.425230979919434e+00 3 1 1
121 2  6.585117578506470e-01 -3.992495238780975e-01 -4.124580383300781e+00 3 1 1
122 3  1.104632392525673e-01  3.366330623626709e+00 -1.171716213226318e+00 3 1 1
123 1  3.204887509346008e-01  3.821193933486938e+00 -9.776231050491333e-01 3 1 1
124 3  6.947204470634460e-01  4.202935695648193e+00 -9.237138032913208e-01 3 1 1
125 4  1.111044764518738e+00  4.504924297332764e+00 -1.079161167144775e+00 3 1 1
126 4  1.431344151496887e+00  4.750826835632324e+00 -1.433595657348633e+00 3 1 1
127 3  1.554000973701477e+00  4.985614776611328e+00 -1.901048541069031e+00 3 1 1
128 1  1.452482461929321e+00  5.258490562438965e+00 -2.352622985839844e+00 3 1 1
129 2  1.185396194458008e+00  5.604180812835693e+00 -2.665438652038574e+00 3 1 1
130 3  8.742976784706116e-01  6.029739856719971e+00 -2.769345283508301e+00 3 1 1
131 3  6.574347615242004e-01  6.511899471282959e+00 -2.673557519912720e+00 3 1 1
132 1  6.372472047805786e-01  7.005872726440430e+00 -2.463151931762695e+00 3 1 1
133 2  8.414767980575562e-01  7.462386131286621e+00 -2.266758441925049e+00 3 1 1
134 2  1.212598919868469e+00  7.846397399902344e+00 -2.207676172256470e+00 3 1 1
135 1  1.629656910896301e+00  8.150432586669922e+00 -2.357043504714966e+00 3 1 1
136 2  1.954292535781860e+00  8.397353172302246e+00 -2.706797361373901e+00 3 1 1
137 4  2.083213806152344e+00  8.631767272949219e+00 -3.172756433486938e+00 3 1 1
138 1  1.987503528594971e+00  8.903008460998535e+00 -3.626575469970703e+00 3 1 1
139 4  1.723594546318054e+00  9.246420860290527e+00 -3.944539785385132e+00 3 1 1
140 3  1.411816358566284e+00  9.669941902160645e+00 -4.054528713226318e+00 3 1 1
141 2  1.190650701522827e+00  1.015106868743896e+01 -3.963458299636841e+00 3 1 1
142 3  1.623211264610291e+00  1.292409038543701e+01 -4.200665473937988e+00 4 1 1
143 2  1.427761554718018e+00  1.246516036987305e+01 -4.400323867797852e+00 4 1 1
144 4  1.457316040992737e+00  1.197065734863281e+01 -4.608368396759033e+00 4 1 1
145 1  1.680598735809326e+00  1.149004554748535e+01 -4.697066307067871e+00 4 1 1
146 3  1.992686152458191e+00  1.106755638122559e+01 -4.584028720855713e+00 4 1 1
147 2  2.254976272583008e+00  1.072527694702148e+01 -4.263512134552002e+00 4 1 1
148 1  2.347753763198853e+00  1.045484352111816e+01 -3.808606624603271e+00 4 1 1
149 3  2.215703725814819e+00  1.022060775756836e+01 -3.343433618545532e+00 4 1 1
150 2  1.888937473297119e+00  9.973168373107910e+00 -2.996040582656860e+00 4 1 1
151 1  1.471534729003906e+00  9.668130874633789e+00 -2.849721193313599e+00 4 1 1
152 4  1.102018594741821e+00  9.282974243164062e+00 -2.911366462707520e+00 4 1 1
153 1  9.007048606872559e-01  8.825643539428711e+00 -3.108879327774048e+00 4 1 1
154 3  9.240231513977051e-01  8.331486701965332e+00 -3.318517208099365e+00 4 1 1
155 4  1.143030524253845e+00  7.849841594696045e+00 -3.411960124969482e+00 4 1 1
156 3  1.454502940177917e+00  7.425289154052734e+00 -3.305008411407471e+00 4 1 1
157 3  1.720011830329895e+00  7.080735683441162e+00 -2.989616632461548e+00 4 1 1
158 4  1.818634033203125e+00  6.808679580688477e+00 -2.536903858184814e+00 4 1 1
159 2  1.692837238311768e+00  6.574088573455811e+00 -2.070185422897339e+00 4 1 1
160 2  1.370359063148499e+00  6.327678680419922e+00 -1.718085646629333e+00 4 1 1
161 3  9.536473155021667e-01  6.024677276611328e+00 -1.565675854682922e+00 4 1 1
162 4  5.809641480445862e-01  5.641800880432129e+00 -1.622178077697754e+00 4 1 1
163 2  3.738199174404144e-01  5.186111450195312e+00 -1.817434430122375e+00 4 1 1
164 1  3.908747732639313e-01  4.692330837249756e+00 -2.028573989868164e+00 4 1 1
165 1  6.055694818496704e-01  4.209665775299072e+00 -2.126690387725830e+00 4 1 1
166 2  9.162870645523071e-01  3.783091068267822e+00 -2.025822877883911e+00 4 1 1
167 4  1.184914112091064e+00  3.436266899108887e+00 -1.715600609779358e+00 4 1 1
168 2 -7.661601305007935e-01  5.472307801246643e-01  2.450761318206787e+00 4 1 1
169 2 -6.399223804473877e-01  9.169232249259949e-01  2.819650173187256e+00 4 1 1
170 2 -7.013014554977417e-01  1.374895453453064e+00  3.093829631805420e+00 4 1 1
171 4 -9.762297868728638e-01  1.786340236663818e+00  3.303186178207397e+00 4 1 1
172 4 -1.409442543983459e+00  2.034096240997314e+00  3.502217054367065e+00 4 1 1
173 2 -1.885607719421387e+00  2.063220500946045e+00  3.749363660812378e+00 4 1 1
174 4 -2.273078918457031e+00  1.901819825172424e+00  4.084772109985352e+00 4 1 1
175 2 -2.473892927169800e+00  1.650376081466675e+00  4.515063762664795e+00 4 1 1
176 3 -2.460947751998901e+00  1.443589568138123e+00  5.010799407958984e+00 4 1 1
177 4 -2.288429498672485e+00  1.399223446846008e+00  5.517706394195557e+00 4 1 1
178 1 -2.071105480194092e+00  1.573250412940979e+00  5.977232933044434e+00 4 1 1
179 2 -1.940739512443542e+00  1.938769459724426e+00  6.348843574523926e+00 4 1 1
180 3 -1.996188402175903e+00  2.396073818206787e+00  6.625403881072998e+00 4 1 1
181 3 -2.265547275543213e+00  2.810585975646973e+00  6.835905075073242e+00 4 1 1
182 3 -2.695706605911255e+00  3.064014673233032e+00  7.034393310546875e+00 4 1 1
183 4 -3.172527790069580e+00  3.099239349365234e+00  7.279519081115723e+00 4 1 1
184 1 -3.564065694808960e+00  2.942044258117676e+00  7.612207889556885e+00 4 1 1
185 3 -3.770812988281250e+00  2.691332578659058e+00  8.040102958679199e+00 4 1 1
186 3 -3.763440608978271e+00  2.481525182723999e+00  8.534682273864746e+00 4 1 1

# Atom-ID, translational, rotational velocity
Velocities

1  0.000000000000000e+00  0.000000000000000e+00  0.000000000000000e+00  0.000000000000000e+00  0.000000000000000e+00  0.000000000000000e+00
2  0.000000000000000e+00  0.000000000000000e+00  0.000000000000000e+00  0.000000000000000e+00  0.000000000000000e+00  0.000000000000000e+00
3  0.000000000000000e+00  0.000000000000000e+00  0.000000000000000e+00  0.000000000000000e+00  0.000000000000000e+00  0.000000000000000e+00
4  0.000000000000000e+00  0.000000000000000e+00  0.000000000000000e+00  0.000000000000000e+00  0.000000000000000e+00  0.000000000000000e+00
5  0.000000000000000e+00  0.000000000000000e+00  0.000000000000000e+00  0.000000000000000e+00  0.000000000000000e+00  0.000000000000000e+00
6  0.000000000000000e+00  0.000000000000000e+00  0.000000000000000e+00  0.000000000000000e+00  0.000000000000000e+00  0.000000000000000e+00
7  0.000000000000000e+00  0.000000000000000e+00  0.000000000000000e+00  0.000000000000000e+00  0.000000000000000e+00  0.000000000000000e+00
8  0.000000000000000e+00  0.000000000000000e+00  0.000000000000000e+00  0.000000000000000e+00  0.000000000000000e+00  0.000000000000000e+00
9  0.000000000000000e+00  0.000000000000000e+00  0.000000000000000e+00  0.000000000000000e+00  0.000000000000000e+00  0.000000000000000e+00
10  0.000000000000000e+00  0.000000000000000e+00  0.000000000000000e+00  0.000000000000000e+00  0.000000000000000e+00  0.000000000000000e+00
11  0.000000000000000e+00  0.000000000000000e+00  0.000000000000000e+00  0.000000000000000e+00  0.000000000000000e+00  0.000000000000000e+00
12  0.000000000000000e+00  0.000000000000000e+00  0.000000000000000e+00  0.000000000000000e+00  0.000000000000000e+00  0.000000000000000e+00
13  0.000000000000000e+00  0.000000000000000e+00  0.000000000000000e+00  0.000000000000000e+00  0.000000000000000e+00  0.000000000000000e+00
14  0.000000000000000e+00  0.000000000000000e+00  0.000000000000000e+00  0.000000000000000e+00  0.000000000000000e+00  0.000000000000000e+00
15  0.000000000000000e+00  0.000000000000000e+00  0.000000000000000e+00  0.000000000000000e+00  0.000000000000000e+00  0.000000000000000e+00
16  0.000000000000000e+00  0.000000000000000e+00  0.000000000000000e+00  0.000000000000000e+00  0.000000000000000e+00  0.000000000000000e+00
17  0.000000000000000e+00  0.000000000000000e+00  0.000000000000000e+00  0.000000000000000e+00  0.000000000000000e+00  0.000000000000000e+00
18  0.000000000000000e+00  0.000000000000000e+00  0.000000000000000e+00  0.000000000000000e+00  0.000000000000000e+00  0.000000000000000e+00
19  0.000000000000000e+00  0.000000000000000e+00  0.000000000000000e+00  0.000000000000000e+00  0.000000000000000e+00  0.000000000000000e+00
20  0.000000000000000e+00  0.000000000000000e+00  0.000000000000000e+00  0.000000000000000e+00  0.000000000000000e+00  0.000000000000000e+00
21  0.000000000000000e+00  0.000000000000000e+00  0.000000000000000e+00  0.000000000000000e+00  0.000000000000000e+00  0.000000000000000e+00
22  0.000000000000000e+00  0.000000000000000e+00  0.000000000000000e+00  0.000000000000000e+00  0.000000000000000e+00  0.000000000000000e+00
23  0.000000000000000e+00  0.000000000000000e+00  0.000000000000000e+00  0.000000000000000e+00  0.000000000000000e+00  0.000000000000000e+00
24  0.000000000000000e+00  0.000000000000000e+00  0.000000000000000e+00  0.000000000000000e+00  0.000000000000000e+00  0.000000000000000e+00
25  0.000000000000000e+00  0.000000000000000e+00  0.000000000000000e+00  0.000000000000000e+00  0.000000000000000e+00  0.000000000000000e+00
26  0.000000000000000e+00  0.000000000000000e+00  0.000000000000000e+00  0.000000000000000e+00  0.000000000000000e+00  0.000000000000000e+00
27  0.000000000000000e+00  0.000000000000000e+00  0.000000000000000e+00  0.000000000000000e+00  0.000000000000000e+00  0.000000000000000e+00
28  0.000000000000000e+00  0.000000000000000e+00  0.000000000000000e+00  0.000000000000000e+00  0.000000000000000e+00  0.000000000000000e+00
29  0.000000000000000e+00  0.000000000000000e+00  0.000000000000000e+00  0.000000000000000e+00  0.000000000000000e+00  0.000000000000000e+00
30  0.000000000000000e+00  0.000000000000000e+00  0.000000000000000e+00  0.000000000000000e+00  0.000000000000000e+00  0.000000000000000e+00
31  0.000000000000000e+00  0.000000000000000e+00  0.000000000000000e+00  0.000000000000000e+00  0.000000000000000e+00  0.000000000000000e+00
32  0.000000000000000e+00  0.000000000000000e+00  0.000000000000000e+00  0.000000000000000e+00  0.000000000000000e+00  0.000000000000000e+00
33  0.000000000000000e+00  0.000000000000000e+00  0.000000000000000e+00  0.000000000000000e+00  0.000000000000000e+00  0.000000000000000e+00
34  0.000000000000000e+00  0.000000000000000e+00  0.000000000000000e+00  0.000000000000000e+00  0.000000000000000e+00  0.000000000000000e+00
35  0.000000000000000e+00  0.000000000000000e+00  0.000000000000000e+00  0.000000000000000e+00  0.000000000000000e+00  0.000000000000000e+00
36  0.000000000000000e+00  0.000000000000000e+00  0.000000000000000e+00  0.000000000000000e+00  0.000000000000000e+00  0.000000000000000e+00
37  0.000000000000000e+00  0.000000000000000e+00  0.000000000000000e+00  0.000000000000000e+00  0.000000000000000e+00  0.000000000000000e+00
38  0.000000000000000e+00  0.000000000000000e+00  0.000000000000000e+00  0.000000000000000e+00  0.000000000000000e+00  0.000000000000000e+00
39  0.000000000000000e+00  0.000000000000000e+00  0.000000000000000e+00  0.000000000000000e+00  0.000000000000000e+00  0.000000000000000e+00
40  0.000000000000000e+00  0.000000000000000e+00  0.000000000000000e+00  0.000000000000000e+00  0.000000000000000e+00  0.000000000000000e+00
41  0.000000000000000e+00  0.000000000000000e+00  0.000000000000000e+00  0.000000000000000e+00  0.000000000000000e+00  0.000000000000000e+00
42  0.000000000000000e+00  0.000000000000000e+00  0.000000000000000e+00  0.000000000000000e+00  0.000000000000000e+00  0.000000000000000e+00
43  0.000000000000000e+00  0.000000000000000e+00  0.000000000000000e+00  0.000000000000000e+00  0.000000000000000e+00  0.000000000000000e+00
44  0.000000000000000e+00  0.000000000000000e+00  0.000000000000000e+00  0.000000000000000e+00  0.000000000000000e+00  0.000000000000000e+00
45  0.000000000000000e+00  0.000000000000000e+00  0.000000000000000e+00  0.000000000000000e+00  0.000000000000000e+00  0.000000000000000e+00
46  0.000000000000000e+00  0.000000000000000e+00  0.000000000000000e+00  0.000000000000000e+00  0.000000000000000e+00  0.000000000000000e+00
47  0.000000000000000e+00  0.000000000000000e+00  0.000000000000000e+00  0.000000000000000e+00  0.000000000000000e+00  0.000000000000000e+00
48  0.000000000000000e+00  0.000000000000000e+00  0.000000000000000e+00  0.000000000000000e+00  0.000000000000000e+00  0.000000000000000e+00
49  0.000000000000000e+00  0.000000000000000e+00  0.000000000000000e+00  0.000000000000000e+00  0.000000000000000e+00  0.000000000000000e+00
50  0.000000000000000e+00  0.000000000000000e+00  0.000000000000000e+00  0.000000000000000e+00  0.000000000000000e+00  0.000000000000000e+00
51  0.000000000000000e+00  0.000000000000000e+00  0.000000000000000e+00  0.000000000000000e+00  0.000000000000000e+00  0.000000000000000e+00
52  0.000000000000000e+00  0.000000000000000e+00  0.000000000000000e+00  0.000000000000000e+00  0.000000000000000e+00  0.000000000000000e+00
53  0.000000000000000e+00  0.000000000000000e+00  0.000000000000000e+00  0.000000000000000e+00  0.000000000000000e+00  0.000000000000000e+00
54  0.000000000000000e+00  0.000000000000000e+00  0.000000000000000e+00  0.000000000000000e+00  0.000000000000000e+00  0.000000000000000e+00
55  0.000000000000000e+00  0.000000000000000e+00  0.000000000000000e+00  0.000000000000000e+00  0.000000000000000e+00  0.000000000000000e+00
56  0.000000000000000e+00  0.000000000000000e+00  0.000000000000000e+00  0.000000000000000e+00  0.000000000000000e+00  0.000000000000000e+00
57  0.000000000000000e+00  0.000000000000000e+00  0.000000000000000e+00  0.000000000000000e+00  0.000000000000000e+00  0.000000000000000e+00
58  0.000000000000000e+00  0.000000000000000e+00  0.000000000000000e+00  0.000000000000000e+00  0.000000000000000e+00  0.000000000000000e+00
59  0.000000000000000e+00  0.000000000000000e+00  0.000000000000000e+00  0.000000000000000e+00  0.000000000000000e+00  0.000000000000000e+00
60  0.000000000000000e+00  0.000000000000000e+00  0.000000000000000e+00  0.000000000000000e+00  0.000000000000000e+00  0.000000000000000e+00
61  0.000000000000000e+00  0.000000000000000e+00  0.000000000000000e+00  0.000000000000000e+00  0.000000000000000e+00  0.000000000000000e+00
62  0.000000000000000e+00  0.000000000000000e+00  0.000000000000000e+00  0.000000000000000e+00  0.000000000000000e+00  0.000000000000000e+00
63  0.000000000000000e+00  0.000000000000000e+00  0.000000000000000e+00  0.000000000000000e+00  0.000000000000000e+00  0.000000000000000e+00
64  0.000000000000000e+00  0.000000000000000e+00  0.000000000000000e+00  0.000000000000000e+00  0.000000000000000e+00  0.000000000000000e+00
65  0.000000000000000e+00  0.000000000000000e+00  0.000000000000000e+00  0.000000000000000e+00  0.000000000000000e+00  0.000000000000000e+00
66  0.000000000000000e+00  0.000000000000000e+00  0.000000000000000e+00  0.000000000000000e+00  0.000000000000000e+00  0.000000000000000e+00
67  0.000000000000000e+00  0.000000000000000e+00  0.000000000000000e+00  0.000000000000000e+00  0.000000000000000e+00  0.000000000000000e+00
68  0.000000000000000e+00  0.000000000000000e+00  0.000000000000000e+00  0.000000000000000e+00  0.000000000000000e+00  0.000000000000000e+00
69  0.000000000000000e+00  0.000000000000000e+00  0.000000000000000e+00  0.000000000000000e+00  0.000000000000000e+00  0.000000000000000e+00
70  0.000000000000000e+00  0.000000000000000e+00  0.000000000000000e+00  0.000000000000000e+00  0.000000000000000e+00  0.000000000000000e+00
71  0.000000000000000e+00  0.000000000000000e+00  0.000000000000000e+00  0.000000000000000e+00  0.000000000000000e+00  0.000000000000000e+00
72  0.000000000000000e+00  0.000000000000000e+00  0.000000000000000e+00  0.000000000000000e+00  0.000000000000000e+00  0.000000000000000e+00
73  0.000000000000000e+00  0.000000000000000e+00  0.000000000000000e+00  0.000000000000000e+00  0.000000000000000e+00  0.000000000000000e+00
74  0.000000000000000e+00  0.000000000000000e+00  0.000000000000000e+00  0.000000000000000e+00  0.000000000000000e+00  0.000000000000000e+00
75  0.000000000000000e+00  0.000000000000000e+00  0.000000000000000e+00  0.000000000000000e+00  0.000000000000000e+00  0.000000000000000e+00
76  0.000000000000000e+00  0.000000000000000e+00  0.000000000000000e+00  0.000000000000000e+00  0.000000000000000e+00  0.000000000000000e+00
77  0.000000000000000e+00  0.000000000000000e+00  0.000000000000000e+00  0.000000000000000e+00  0.000000000000000e+00  0.000000000000000e+00
78  0.000000000000000e+00  0.000000000000000e+00  0.000000000000000e+00  0.000000000000000e+00  0.000000000000000e+00  0.000000000000000e+00
79  0.000000000000000e+00  0.000000000000000e+00  0.000000000000000e+00  0.000000000000000e+00  0.000000000000000e+00  0.000000000000000e+00
80  0.000000000000000e+00  0.000000000000000e+00  0.000000000000000e+00  0.000000000000000e+00  0.000000000000000e+00  0.000000000000000e+00
81  0.000000000000000e+00  0.000000000000000e+00  0.000000000000000e+00  0.000000000000000e+00  0.000000000000000e+00  0.000000000000000e+00
82  0.000000000000000e+00  0.000000000000000e+00  0.000000000000000e+00  0.000000000000000e+00  0.000000000000000e+00  0.000000000000000e+00
83  0.000000000000000e+00  0.000000000000000e+00  0.000000000000000e+00  0.000000000000000e+00  0.000000000000000e+00  0.000000000000000e+00
84  0.000000000000000e+00  0.000000000000000e+00  0.000000000000000e+00  0.000000000000000e+00  0.000000000000000e+00  0.000000000000000e+00
85  0.000000000000000e+00  0.000000000000000e+00  0.000000000000000e+00  0.000000000000000e+00  0.000000000000000e+00  0.000000000000000e+00
86  0.000000000000000e+00  0.000000000000000e+00  0.000000000000000e+00  0.000000000000000e+00  0.000000000000000e+00  0.000000000000000e+00
87  0.000000000000000e+00  0.000000000000000e+00  0.000000000000000e+00  0.000000000000000e+00  0.000000000000000e+00  0.000000000000000e+00
88  0.000000000000000e+00  0.000000000000000e+00  0.000000000000000e+00  0.000000000000000e+00  0.000000000000000e+00  0.000000000000000e+00
89  0.000000000000000e+00  0.000000000000000e+00  0.000000000000000e+00  0.000000000000000e+00  0.000000000000000e+00  0.000000000000000e+00
90  0.000000000000000e+00  0.000000000000000e+00  0.000000000000000e+00  0.000000000000000e+00  0.000000000000000e+00  0.000000000000000e+00
91  0.000000000000000e+00  0.000000000000000e+00  0.000000000000000e+00  0.000000000000000e+00  0.000000000000000e+00  0.000000000000000e+00
92  0.000000000000000e+00  0.000000000000000e+00  0.000000000000000e+00  0.000000000000000e+00  0.000000000000000e+00  0.000000000000000e+00
93  0.000000000000000e+00  0.000000000000000e+00  0.000000000000000e+00  0.000000000000000e+00  0.000000000000000e+00  0.000000000000000e+00
94  0.000000000000000e+00  0.000000000000000e+00  0.000000000000000e+00  0.000000000000000e+00  0.000000000000000e+00  0.000000000000000e+00
95  0.000000000000000e+00  0.000000000000000e+00  0.000000000000000e+00  0.000000000000000e+00  0.000000000000000e+00  0.000000000000000e+00
96  0.000000000000000e+00  0.000000000000000e+00  0.000000000000000e+00  0.000000000000000e+00  0.000000000000000e+00  0.000000000000000e+00
97  0.000000000000000e+00  0.000000000000000e+00  0.000000000000000e+00  0.000000000000000e+00  0.000000000000000e+00  0.000000000000000e+00
98  0.000000000000000e+00  0.000000000000000e+00  0.000000000000000e+00  0.000000000000000e+00  0.000000000000000e+00  0.000000000000000e+00
99  0.000000000000000e+00  0.000000000000000e+00  0.000000000000000e+00  0.000000000000000e+00  0.000000000000000e+00  0.000000000000000e+00
100  0.000000000000000e+00  0.000000000000000e+00  0.000000000000000e+00  0.000000000000000e+00  0.000000000000000e+00  0.000000000000000e+00
101  0.000000000000000e+00  0.000000000000000e+00  0.000000000000000e+00  0.000000000000000e+00  0.000000000000000e+00  0.000000000000000e+00
102  0.000000000000000e+00  0.000000000000000e+00  0.000000000000000e+00  0.000000000000000e+00  0.000000000000000e+00  0.000000000000000e+00
103  0.000000000000000e+00  0.000000000000000e+00  0.000000000000000e+00  0.000000000000000e+00  0.000000000000000e+00  0.000000000000000e+00
104  0.000000000000000e+00  0.000000000000000e+00  0.000000000000000e+00  0.000000000000000e+00  0.000000000000000e+00  0.000000000000000e+00