# LAMMPS data file
186 atoms
186 ellipsoids
182 bonds

4 atom types
1 bond types

# System size
0.000000 33.000000 xlo xhi
0.000000 33.000000 ylo yhi
0.000000 33.000000 zlo zhi

Masses

1 3.1575
2 3.1575
3 3.1575
4 3.1575

# Atom-ID, type, position, molecule-ID, ellipsoid flag, density
Atoms

1 3 -8.669491767883301e+00  2.315722703933716e+00  7.276261806488037e+00 1 1 1
2 2 -8.158725738525391e+00  2.170987844467163e+00  7.358685016632080e+00 1 1 1
3 4 -7.740359783172607e+00  1.833829283714294e+00  7.361083984375000e+00 1 1 1
4 1 -7.453441143035889e+00  1.409511804580688e+00  7.198917865753174e+00 1 1 1
5 3 -7.286927700042725e+00  1.036320805549622e+00  6.850045204162598e+00 1 1 1
6 2 -7.184052467346191e+00  8.331761956214905e-01  6.363344669342041e+00 1 1 1
7 1 -7.064031600952148e+00  8.544006943702698e-01  5.840080261230469e+00 1 1 1
8 2 -6.852278709411621e+00  1.068976879119873e+00  5.395359516143799e+00 1 1 1
9 2 -6.509372711181641e+00  1.372539043426514e+00  5.114422798156738e+00 1 1 1
10 4 -6.045483589172363e+00  1.626840710639954e+00  5.020334720611572e+00 1 1 1
11 1 -5.516952991485596e+00  1.712441205978394e+00  5.065083026885986e+00 1 1 1
12 2 -5.004523754119873e+00  1.573887109756470e+00  5.148148059844971e+00 1 1 1
13 2 -4.582887649536133e+00  1.240952491760254e+00  5.154214382171631e+00 1 1 1
14 2 -4.292201995849609e+00  8.172216415405273e-01  4.997214317321777e+00 1 1 1
15 3 -4.122940540313721e+00  4.407992362976074e-01  4.653243064880371e+00 1 1 1
16 4 -4.019381999969482e+00  2.318040281534195e-01  4.169200420379639e+00 1 1 1
17 1 -3.900848150253296e+00  2.467592954635620e-01  3.645352840423584e+00 1 1 1
18 2 -3.692458152770996e+00  4.571212828159332e-01  3.196981668472290e+00 1 1 1
19 3 -3.353303670883179e+00  7.600343227386475e-01  2.910865306854248e+00 1 1 1
20 1 -2.892234802246094e+00  1.017560482025146e+00  2.811885356903076e+00 1 1 1
21 3 -2.364478588104248e+00  1.108994722366333e+00  2.853997468948364e+00 1 1 1
22 1 -1.850448369979858e+00  9.766627550125122e-01  2.937537670135498e+00 1 1 1
23 1 -1.425523281097412e+00  6.480007767677307e-01  2.947141647338867e+00 1 1 1
24 3 -1.131052255630493e+00  2.249458283185959e-01  2.795393943786621e+00 1 1 1
25 3 -9.589920639991760e-01 -1.546134799718857e-01  2.456276893615723e+00 1 1 1
26 3 -8.546274900436401e-01 -3.694045543670654e-01  1.974936485290527e+00 1 1 1
27 2 -7.376497387886047e-01 -3.606992959976196e-01  1.450603365898132e+00 1 1 1
28 1  5.270788818597794e-02 -1.699203729629517e+00  5.739726424217224e-01 1 1 1
29 1 -7.914856076240540e-02 -2.206848621368408e+00  4.573289155960083e-01 1 1 1
30 1 -6.010352075099945e-02 -2.664870023727417e+00  1.771537810564041e-01 1 1 1
31 4  1.643406748771667e-01 -3.032848834991455e+00 -1.436584740877151e-01 1 1 1
32 1  5.708205699920654e-01 -3.304464340209961e+00 -3.666124939918518e-01 1 1 1
33 3  1.066596269607544e+00 -3.510142803192139e+00 -3.905880749225616e-01 1 1 1
34 4  1.525220274925232e+00 -3.705210447311401e+00 -1.898537129163742e-01 1 1 1
35 3  1.834277510643005e+00 -3.949120998382568e+00  1.757611185312271e-01 1 1 1
36 3  1.938123941421509e+00 -4.282742977142334e+00  5.839470028877258e-01 1 1 1
37 3  1.859090685844421e+00 -4.712930202484131e+00  8.960160017013550e-01 1 1 1
38 2  1.689141511917114e+00 -5.209685802459717e+00  1.010068655014038e+00 1 1 1
39 3  1.554552674293518e+00 -5.717890262603760e+00  8.992020487785339e-01 1 1 1
40 3  1.568275690078735e+00 -6.177991867065430e+00  6.221028566360474e-01 1 1 1
41 4  1.786946058273315e+00 -6.548761844635010e+00  3.004994690418243e-01 1 1 1
42 1  2.189291715621948e+00 -6.822840690612793e+00  7.309702783823013e-02 1 1 1
43 4  2.684302330017090e+00 -7.029606819152832e+00  4.292369261384010e-02 1 1 1
44 2  3.145632266998291e+00 -7.224136352539062e+00  2.378378659486771e-01 1 1 1
45 1  3.459948539733887e+00 -7.466029167175293e+00  6.002724766731262e-01 1 1 1
46 4  3.569576263427734e+00 -7.796886444091797e+00  1.009176611900330e+00 1 1 1
47 2  3.494696855545044e+00 -8.224639892578125e+00  1.325609803199768e+00 1 1 1
48 3  4.005203723907471e+00 -1.098444461822510e+01  1.561784029006958e+00 2 1 1
49 2  4.143782138824463e+00 -1.047546863555908e+01  1.663832426071167e+00 2 1 1
50 4  4.312442302703857e+00 -9.980494499206543e+00  1.540334939956665e+00 2 1 1
51 1  4.385255336761475e+00 -9.553964614868164e+00  1.221830844879150e+00 2 1 1
52 3  4.272679805755615e+00 -9.224537849426270e+00  8.125546574592590e-01 2 1 1
53 2  3.955795526504517e+00 -8.983635902404785e+00  4.517249464988708e-01 2 1 1
54 1  3.493110179901123e+00 -8.789375305175781e+00  2.597213089466095e-01 2 1 1
55 3  2.998598098754883e+00 -8.581957817077637e+00  2.931018769741058e-01 2 1 1
56 1  2.598274469375610e+00 -8.306686401367188e+00  5.226138830184937e-01 2 1 1
57 4  2.382521390914917e+00 -7.934533119201660e+00  8.445627093315125e-01 2 1 1
58 3  2.371407747268677e+00 -7.473419666290283e+00  1.120088934898376e+00 2 1 1
59 1  2.507347583770752e+00 -6.964943885803223e+00  1.228051662445068e+00 2 1 1
60 4  2.676908731460571e+00 -6.468774318695068e+00  1.110841035842896e+00 2 1 1
61 1  2.753848791122437e+00 -6.039819240570068e+00  7.965672016143799e-01 2 1 1
62 2  2.647089004516602e+00 -5.707574367523193e+00  3.880399167537689e-01 2 1 1
63 2  2.335474014282227e+00 -5.464670181274414e+00  2.395443059504032e-02 2 1 1
64 3  1.875416159629822e+00 -5.269900798797607e+00 -1.738778948783875e-01 2 1 1
65 2  1.380029082298279e+00 -5.063648700714111e+00 -1.467408686876297e-01 2 1 1
66 2  9.756113886833191e-01 -4.790834426879883e+00  7.837309688329697e-02 2 1 1
67 2  7.540712356567383e-01 -4.421451091766357e+00  3.996098637580872e-01 2 1 1
68 1  7.376933097839355e-01 -3.962364673614502e+00  6.783074140548706e-01 2 1 1
69 2  8.709028959274292e-01 -3.454458951950073e+00  7.920447587966919e-01 2 1 1
70 4  1.041323065757751e+00 -2.957098007202148e+00  6.811589002609253e-01 2 1 1
71 1  1.122303843498230e+00 -2.525764226913452e+00  3.711998462677002e-01 2 1 1
72 4  1.021344900131226e+00 -2.190715312957764e+00 -3.648352250456810e-02 2 1 1
73 4  7.149695754051208e-01 -1.945754528045654e+00 -4.036595225334167e-01 2 1 1
74 4  2.577275633811951e-01 -1.750393271446228e+00 -6.072560548782349e-01 2 1 1
75 3 -1.688224077224731e-01 -5.070428848266602e-01 -1.812807321548462e+00 2 1 1
76 4 -6.286967396736145e-01 -3.119165599346161e-01 -2.010672569274902e+00 2 1 1
77 1 -9.433618783950806e-01  5.498502776026726e-02 -2.245328426361084e+00 2 1 1
78 2 -1.052108049392700e+00  4.752518236637115e-01 -2.561881780624390e+00 2 1 1
79 3 -9.724674224853516e-01  8.102183341979980e-01 -2.974341869354248e+00 2 1 1
80 2 -7.935768365859985e-01  9.536019563674927e-01 -3.460297107696533e+00 2 1 1
81 4 -6.422371268272400e-01  8.718743324279785e-01 -3.969324111938477e+00 2 1 1
82 2 -6.348006725311279e-01  6.170215010643005e-01 -4.442247867584229e+00 2 1 1
83 2 -8.329008221626282e-01  3.069495260715485e-01 -4.833755493164062e+00 2 1 1
84 2 -1.220218062400818e+00  8.033478260040283e-02 -5.129294395446777e+00 2 1 1
85 1 -1.708391189575195e+00  4.426166415214539e-02 -5.350820064544678e+00 2 1 1
86 3 -2.170808792114258e+00  2.334649711847305e-01 -5.548486709594727e+00 2 1 1
87 3 -2.490698575973511e+00  5.969265103340149e-01 -5.781364440917969e+00 2 1 1
88 4 -2.605303287506104e+00  1.017650485038757e+00 -6.095307826995850e+00 2 1 1
89 4 -2.529977083206177e+00  1.356701493263245e+00 -6.505249023437500e+00 2 1 1
90 1 -2.352177143096924e+00  1.506246924400330e+00 -6.989691734313965e+00 2 1 1
91 4 -2.198370933532715e+00  1.430446267127991e+00 -7.498900413513184e+00 2 1 1
92 3 -2.185684919357300e+00  1.179110646247864e+00 -7.973584175109863e+00 2 1 1
93 3 -2.377973556518555e+00  8.686266541481018e-01 -8.367702484130859e+00 2 1 1
94 2 -2.760932207107544e+00  6.379671096801758e-01 -8.665774345397949e+00 2 1 1
95 3 -4.483764171600342e+00  1.051763653755188e+00 -1.085521984100342e+01 3 1 1
96 2 -4.017666339874268e+00  8.715713024139404e-01 -1.065778350830078e+01 3 1 1
97 4 -3.531309127807617e+00  9.168538451194763e-01 -1.043400859832764e+01 3 1 1
98 1 -3.150556325912476e+00  1.149487853050232e+00 -1.013465309143066e+01 3 1 1
99 3 -2.961256742477417e+00  1.460110068321228e+00 -9.739225387573242e+00 3 1 1
100 2 -2.976432323455811e+00  1.709725856781006e+00 -9.263685226440430e+00 3 1 1
101 1 -3.131514310836792e+00  1.782508373260498e+00 -8.754431724548340e+00 3 1 1
102 3 -3.308697223663330e+00  1.629860758781433e+00 -8.270687103271484e+00 3 1 1
103 2 -3.381810665130615e+00  1.288829445838928e+00 -7.862018108367920e+00 3 1 1
104 2 -3.264295101165771e+00  8.679364919662476e-01 -7.549426555633545e+00 3 1 1
105 1 -2.941812515258789e+00  5.061978697776794e-01 -7.317388057708740e+00 3 1 1
106 4 -2.478119373321533e+00  3.200005292892456e-01 -7.119805812835693e+00 3 1 1
107 1 -1.990520119667053e+00  3.591415882110596e-01 -6.897527694702148e+00 3 1 1
108 1 -1.605408191680908e+00  5.877971649169922e-01 -6.600756168365479e+00 3 1 1
109 2 -1.410259366035461e+00  8.980729579925537e-01 -6.207952976226807e+00 3 1 1
110 2 -1.420309185981750e+00  1.151165723800659e+00 -5.734114170074463e+00 3 1 1
111 4 -1.572890400886536e+00  1.229940533638000e+00 -5.224993705749512e+00 3 1 1
112 3 -1.751261115074158e+00  1.083457946777344e+00 -4.739782810211182e+00 3 1 1
113 3 -1.828700065612793e+00  7.464558482170105e-01 -4.328553676605225e+00 3 1 1
114 3 -1.717044234275818e+00  3.259327411651611e-01 -4.013315200805664e+00 3 1 1
115 1 -1.399792671203613e+00 -3.926757723093033e-02 -3.779571771621704e+00 3 1 1
116 3 -9.386248588562012e-01 -2.314195334911346e-01 -3.581825256347656e+00 3 1 1
117 2 -4.499254524707794e-01 -1.984505206346512e-01 -3.361029386520386e+00 3 1 1
118 3 -6.044111773371696e-02  2.614597789943218e-02 -3.066774606704712e+00 3 1 1
119 4  1.406160295009613e-01  3.360014557838440e-01 -2.676589965820312e+00 3 1 1
120 1  1.357508301734924e-01  5.924977660179138e-01 -2.204507350921631e+00 3 1 1
121 2 -1.428941451013088e-02  6.771987080574036e-01 -1.695590138435364e+00 3 1 1
122 3  6.829184293746948e-01  1.520518541336060e+00 -2.871858477592468e-01 3 1 1
123 1  7.693122029304504e-01  2.050464153289795e+00 -2.677851915359497e-01 3 1 1
124 3  8.376819491386414e-01  2.526224613189697e+00 -2.770986407995224e-02 3 1 1
125 4  9.760521054267883e-01  2.856256961822510e+00  3.730671107769012e-01 3 1 1
126 4  1.245872378349304e+00  3.004340648651123e+00  8.134720325469971e-01 3 1 1
127 3  1.658653736114502e+00  3.003393650054932e+00  1.157337307929993e+00 3 1 1
128 1  2.171626329421997e+00  2.942936658859253e+00  1.305362939834595e+00 3 1 1
129 2  2.703882217407227e+00  2.935133934020996e+00  1.232389688491821e+00 3 1 1
130 3  3.167265892028809e+00  3.072095870971680e+00  9.974389672279358e-01 3 1 1
131 3  3.499687433242798e+00  3.391032934188843e+00  7.209087610244751e-01 3 1 1
132 1  3.688953638076782e+00  3.859866857528687e+00  5.391097068786621e-01 3 1 1
133 2  3.777110815048218e+00  4.389714717864990e+00  5.522978901863098e-01 3 1 1
134 2  3.844708442687988e+00  4.868456840515137e+00  7.867218852043152e-01 3 1 1
135 1  3.980103254318237e+00  5.203362464904785e+00  1.184443593025208e+00 3 1 1
136 2  4.245871067047119e+00  5.356369972229004e+00  1.625671148300171e+00 3 1 1
137 4  4.655029296875000e+00  5.358556747436523e+00  1.973875999450684e+00 3 1 1
138 1  5.166165828704834e+00  5.298261165618896e+00  2.128043413162231e+00 3 1 1
139 4  5.699142932891846e+00  5.287536144256592e+00  2.060824394226074e+00 3 1 1
140 3  6.165453910827637e+00  5.419691085815430e+00  1.828941226005554e+00 3 1 1
141 2  6.501994132995605e+00  5.733623981475830e+00  1.551670670509338e+00 3 1 1
142 3  8.288765907287598e+00  7.898578643798828e+00  1.782822608947754e+00 4 1 1
143 2  8.197834014892578e+00  7.369036674499512e+00  1.778925538063049e+00 4 1 1
144 4  8.003070831298828e+00  6.904977321624756e+00  1.967061161994934e+00 4 1 1
145 1  7.664485454559326e+00  6.593522548675537e+00  2.244685411453247e+00 4 1 1
146 3  7.196731567382812e+00  6.463792800903320e+00  2.474984169006348e+00 4 1 1
147 2  6.663458824157715e+00  6.475909709930420e+00  2.539328813552856e+00 4 1 1
148 1  6.153265476226807e+00  6.536099910736084e+00  2.382069826126099e+00 4 1 1
149 3  5.745876312255859e+00  6.532341003417969e+00  2.031713247299194e+00 4 1 1
150 2  5.482208728790283e+00  6.376827239990234e+00  1.590179443359375e+00 4 1 1
151 1  5.348267555236816e+00  6.039520263671875e+00  1.193951964378357e+00 4 1 1
152 4  5.280989646911621e+00  5.559363365173340e+00  9.624344110488892e-01 4 1 1
153 1  5.191949844360352e+00  5.029584884643555e+00  9.523755908012390e-01 4 1 1
154 3  5.000838279724121e+00  4.562327384948730e+00  1.136292934417725e+00 4 1 1
155 4  4.666369438171387e+00  4.245882034301758e+00  1.413170576095581e+00 4 1 1
156 3  4.201527118682861e+00  4.111308097839355e+00  1.646630048751831e+00 4 1 1
157 3  3.668928861618042e+00  4.120562553405762e+00  1.716740131378174e+00 4 1 1
158 4  3.156825065612793e+00  4.180977344512939e+00  1.565634250640869e+00 4 1 1
159 2  2.745870590209961e+00  4.180357933044434e+00  1.219569087028503e+00 4 1 1
160 2  2.478066682815552e+00  4.029820442199707e+00  7.787811160087585e-01 4 1 1
161 3  2.341212987899780e+00  3.697334766387939e+00  3.794819712638855e-01 4 1 1
162 4  2.273211479187012e+00  3.220099687576294e+00  1.422111093997955e-01 4 1 1
163 2  2.185987234115601e+00  2.690160512924194e+00  1.259260773658752e-01 4 1 1
164 1  1.998518824577332e+00  2.219771146774292e+00  3.055790960788727e-01 4 1 1
165 1  1.668100476264954e+00  1.898394465446472e+00  5.816390514373779e-01 4 1 1
166 2  1.206252574920654e+00  1.758967518806458e+00  8.181535601615906e-01 4 1 1
167 4  6.743579506874084e-01  1.765299201011658e+00  8.939338922500610e-01 4 1 1
168 2 -7.881949543952942e-01  8.071635961532593e-01  1.748516321182251e+00 4 1 1
169 2 -1.315528988838196e+00  7.128256559371948e-01  1.707720756530762e+00 4 1 1
170 2 -1.775217771530151e+00  4.537715613842010e-01  1.809103250503540e+00 4 1 1
171 4 -2.112489461898804e+00  1.511993408203125e-01  2.097916364669800e+00 4 1 1
172 4 -2.319284677505493e+00 -5.698091164231300e-02  2.548013448715210e+00 4 1 1
173 2 -2.437016248703003e+00 -6.881393492221832e-02  3.072063207626343e+00 4 1 1
174 4 -2.540952444076538e+00  1.430736482143402e-01  3.554720878601074e+00 4 1 1
175 2 -2.711620330810547e+00  5.210778117179871e-01  3.896366357803345e+00 4 1 1
176 3 -3.004170417785645e+00  9.444826245307922e-01  4.050675868988037e+00 4 1 1
177 4 -3.427471637725830e+00  1.275272369384766e+00  4.042908668518066e+00 4 1 1
178 1 -3.940694332122803e+00  1.410725712776184e+00  3.959571599960327e+00 4 1 1
179 2 -4.468896389007568e+00  1.322245597839355e+00  3.916032552719116e+00 4 1 1
180 3 -4.931328296661377e+00  1.066280484199524e+00  4.012609958648682e+00 4 1 1
181 3 -5.272382736206055e+00  7.630342245101929e-01  4.296178340911865e+00 4 1 1
182 3 -5.482443809509277e+00  5.505554676055908e-01  4.742713928222656e+00 4 1 1
183 4 -5.601725578308105e+00  5.324707627296448e-01  5.266271591186523e+00 4 1 1
184 1 -5.704928874969482e+00  7.385551929473877e-01  5.751644611358643e+00 4 1 1
185 3 -5.872800350189209e+00  1.113360047340393e+00  6.098054885864258e+00 4 1 1
186 3 -6.161645412445068e+00  1.537422299385071e+00  6.257624626159668e+00 4 1 1

# Atom-ID, translational, rotational velocity
Velocities

1  0.000000000000000e+00  0.000000000000000e+00  0.000000000000000e+00  0.000000000000000e+00  0.000000000000000e+00  0.000000000000000e+00
2  0.000000000000000e+00  0.000000000000000e+00  0.000000000000000e+00  0.000000000000000e+00  0.000000000000000e+00  0.000000000000000e+00
3  0.000000000000000e+00  0.000000000000000e+00  0.000000000000000e+00  0.000000000000000e+00  0.000000000000000e+00  0.000000000000000e+00
4  0.000000000000000e+00  0.000000000000000e+00  0.000000000000000e+00  0.000000000000000e+00  0.000000000000000e+00  0.000000000000000e+00
5  0.000000000000000e+00  0.000000000000000e+00  0.000000000000000e+00  0.000000000000000e+00  0.000000000000000e+00  0.000000000000000e+00
6  0.000000000000000e+00  0.000000000000000e+00  0.000000000000000e+00  0.000000000000000e+00  0.000000000000000e+00  0.000000000000000e+00
7  0.000000000000000e+00  0.000000000000000e+00  0.000000000000000e+00  0.000000000000000e+00  0.000000000000000e+00  0.000000000000000e+00
8  0.000000000000000e+00  0.000000000000000e+00  0.000000000000000e+00  0.000000000000000e+00  0.000000000000000e+00  0.000000000000000e+00
9  0.000000000000000e+00  0.000000000000000e+00  0.000000000000000e+00  0.000000000000000e+00  0.000000000000000e+00  0.000000000000000e+00
10  0.000000000000000e+00  0.000000000000000e+00  0.000000000000000e+00  0.000000000000000e+00  0.000000000000000e+00  0.000000000000000e+00
11  0.000000000000000e+00  0.000000000000000e+00  0.000000000000000e+00  0.000000000000000e+00  0.000000000000000e+00  0.000000000000000e+00
12  0.000000000000000e+00  0.000000000000000e+00  0.000000000000000e+00  0.000000000000000e+00  0.000000000000000e+00  0.000000000000000e+00
13  0.000000000000000e+00  0.000000000000000e+00  0.000000000000000e+00  0.000000000000000e+00  0.000000000000000e+00  0.000000000000000e+00
14  0.000000000000000e+00  0.000000000000000e+00  0.000000000000000e+00  0.000000000000000e+00  0.000000000000000e+00  0.000000000000000e+00
15  0.000000000000000e+00  0.000000000000000e+00  0.000000000000000e+00  0.000000000000000e+00  0.000000000000000e+00  0.000000000000000e+00
16  0.000000000000000e+00  0.000000000000000e+00  0.000000000000000e+00  0.000000000000000e+00  0.000000000000000e+00  0.000000000000000e+00
17  0.000000000000000e+00  0.000000000000000e+00  0.000000000000000e+00  0.000000000000000e+00  0.000000000000000e+00  0.000000000000000e+00
18  0.000000000000000e+00  0.000000000000000e+00  0.000000000000000e+00  0.000000000000000e+00  0.000000000000000e+00  0.000000000000000e+00
19  0.000000000000000e+00  0.000000000000000e+00  0.000000000000000e+00  0.000000000000000e+00  0.000000000000000e+00  0.000000000000000e+00
20  0.000000000000000e+00  0.000000000000000e+00  0.000000000000000e+00  0.000000000000000e+00  0.000000000000000e+00  0.000000000000000e+00
21  0.000000000000000e+00  0.000000000000000e+00  0.000000000000000e+00  0.000000000000000e+00  0.000000000000000e+00  0.000000000000000e+00
22  0.000000000000000e+00  0.000000000000000e+00  0.000000000000000e+00  0.000000000000000e+00  0.000000000000000e+00  0.000000000000000e+00
23  0.000000000000000e+00  0.000000000000000e+00  0.000000000000000e+00  0.000000000000000e+00  0.000000000000000e+00  0.000000000000000e+00
24  0.000000000000000e+00  0.000000000000000e+00  0.000000000000000e+00  0.000000000000000e+00  0.000000000000000e+00  0.000000000000000e+00
25  0.000000000000000e+00  0.000000000000000e+00  0.000000000000000e+00  0.000000000000000e+00  0.000000000000000e+00  0.000000000000000e+00
26  0.000000000000000e+00  0.000000000000000e+00  0.000000000000000e+00  0.000000000000000e+00  0.000000000000000e+00  0.000000000000000e+00
27  0.000000000000000e+00  0.000000000000000e+00  0.000000000000000e+00  0.000000000000000e+00  0.000000000000000e+00  0.000000000000000e+00
28  0.000000000000000e+00  0.000000000000000e+00  0.000000000000000e+00  0.000000000000000e+00  0.000000000000000e+00  0.000000000000000e+00
29  0.000000000000000e+00  0.000000000000000e+00  0.000000000000000e+00  0.000000000000000e+00  0.000000000000000e+00  0.000000000000000e+00
30  0.000000000000000e+00  0.000000000000000e+00  0.000000000000000e+00  0.000000000000000e+00  0.000000000000000e+00  0.000000000000000e+00
31  0.000000000000000e+00  0.000000000000000e+00  0.000000000000000e+00  0.000000000000000e+00  0.000000000000000e+00  0.000000000000000e+00
32  0.000000000000000e+00  0.000000000000000e+00  0.000000000000000e+00  0.000000000000000e+00  0.000000000000000e+00  0.000000000000000e+00
33  0.000000000000000e+00  0.000000000000000e+00  0.000000000000000e+00  0.000000000000000e+00  0.000000000000000e+00  0.000000000000000e+00
34  0.000000000000000e+00  0.000000000000000e+00  0.000000000000000e+00  0.000000000000000e+00  0.000000000000000e+00  0.000000000000000e+00
35  0.000000000000000e+00  0.000000000000000e+00  0.000000000000000e+00  0.000000000000000e+00  0.000000000000000e+00  0.000000000000000e+00
36  0.000000000000000e+00  0.000000000000000e+00  0.000000000000000e+00  0.000000000000000e+00  0.000000000000000e+00  0.000000000000000e+00
37  0.000000000000000e+00  0.000000000000000e+00  0.000000000000000e+00  0.000000000000000e+00  0.000000000000000e+00  0.000000000000000e+00
38  0.000000000000000e+00  0.000000000000000e+00  0.000000000000000e+00  0.000000000000000e+00  0.000000000000000e+00  0.000000000000000e+00
39  0.000000000000000e+00  0.000000000000000e+00  0.000000000000000e+00  0.000000000000000e+00  0.000000000000000e+00  0.000000000000000e+00
40  0.000000000000000e+00  0.000000000000000e+00  0.000000000000000e+00  0.000000000000000e+00  0.000000000000000e+00  0.000000000000000e+00
41  0.000000000000000e+00  0.000000000000000e+00  0.000000000000000e+00  0.000000000000000e+00  0.000000000000000e+00  0.000000000000000e+00
42  0.000000000000000e+00  0.000000000000000e+00  0.000000000000000e+00  0.000000000000000e+00  0.000000000000000e+00  0.000000000000000e+00
43  0.000000000000000e+00  0.000000000000000e+00  0.000000000000000e+00  0.000000000000000e+00  0.000000000000000e+00  0.000000000000000e+00
44  0.000000000000000e+00  0.000000000000000e+00  0.000000000000000e+00  0.000000000000000e+00  0.000000000000000e+00  0.000000000000000e+00
45  0.000000000000000e+00  0.000000000000000e+00  0.000000000000000e+00  0.000000000000000e+00  0.000000000000000e+00  0.000000000000000e+00
46  0.000000000000000e+00  0.000000000000000e+00  0.000000000000000e+00  0.000000000000000e+00  0.000000000000000e+00  0.000000000000000e+00
47  0.000000000000000e+00  0.000000000000000e+00  0.000000000000000e+00  0.000000000000000e+00  0.000000000000000e+00  0.000000000000000e+00
48  0.000000000000000e+00  0.000000000000000e+00  0.000000000000000e+00  0.000000000000000e+00  0.000000000000000e+00  0.000000000000000e+00
49  0.000000000000000e+00  0.000000000000000e+00  0.000000000000000e+00  0.000000000000000e+00  0.000000000000000e+00  0.000000000000000e+00
50  0.000000000000000e+00  0.000000000000000e+00  0.000000000000000e+00  0.000000000000000e+00  0.000000000000000e+00  0.000000000000000e+00
51  0.000000000000000e+00  0.000000000000000e+00  0.000000000000000e+00  0.000000000000000e+00  0.000000000000000e+00  0.000000000000000e+00
52  0.000000000000000e+00  0.000000000000000e+00  0.000000000000000e+00  0.000000000000000e+00  0.000000000000000e+00  0.000000000000000e+00
53  0.000000000000000e+00  0.000000000000000e+00  0.000000000000000e+00  0.000000000000000e+00  0.000000000000000e+00  0.000000000000000e+00
54  0.000000000000000e+00  0.000000000000000e+00  0.000000000000000e+00  0.000000000000000e+00  0.000000000000000e+00  0.000000000000000e+00
55  0.000000000000000e+00  0.000000000000000e+00  0.000000000000000e+00  0.000000000000000e+00  0.000000000000000e+00  0.000000000000000e+00
56  0.000000000000000e+00  0.000000000000000e+00  0.000000000000000e+00  0.000000000000000e+00  0.000000000000000e+00  0.000000000000000e+00
57  0.000000000000000e+00  0.000000000000000e+00  0.000000000000000e+00  0.000000000000000e+00  0.000000000000000e+00  0.000000000000000e+00
58  0.000000000000000e+00  0.000000000000000e+00  0.000000000000000e+00  0.000000000000000e+00  0.000000000000000e+00  0.000000000000000e+00
59  0.000000000000000e+00  0.000000000000000e+00  0.000000000000000e+00  0.000000000000000e+00  0.000000000000000e+00  0.000000000000000e+00
60  0.000000000000000e+00  0.000000000000000e+00  0.000000000000000e+00  0.000000000000000e+00  0.000000000000000e+00  0.000000000000000e+00
61  0.000000000000000e+00  0.000000000000000e+00  0.000000000000000e+00  0.000000000000000e+00  0.000000000000000e+00  0.000000000000000e+00
62  0.000000000000000e+00  0.000000000000000e+00  0.000000000000000e+00  0.000000000000000e+00  0.000000000000000e+00  0.000000000000000e+00
63  0.000000000000000e+00  0.000000000000000e+00  0.000000000000000e+00  0.000000000000000e+00  0.000000000000000e+00  0.000000000000000e+00
64  0.000000000000000e+00  0.000000000000000e+00  0.000000000000000e+00  0.000000000000000e+00  0.000000000000000e+00  0.000000000000000e+00
65  0.000000000000000e+00  0.000000000000000e+00  0.000000000000000e+00  0.000000000000000e+00  0.000000000000000e+00  0.000000000000000e+00
66  0.000000000000000e+00  0.000000000000000e+00  0.000000000000000e+00  0.000000000000000e+00  0.000000000000000e+00  0.000000000000000e+00
67  0.000000000000000e+00  0.000000000000000e+00  0.000000000000000e+00  0.000000000000000e+00  0.000000000000000e+00  0.000000000000000e+00
68  0.000000000000000e+00  0.000000000000000e+00  0.000000000000000e+00  0.000000000000000e+00  0.000000000000000e+00  0.000000000000000e+00
69  0.000000000000000e+00  0.000000000000000e+00  0.000000000000000e+00  0.000000000000000e+00  0.000000000000000e+00  0.000000000000000e+00
70  0.000000000000000e+00  0.000000000000000e+00  0.000000000000000e+00  0.000000000000000e+00  0.000000000000000e+00  0.000000000000000e+00
71  0.000000000000000e+00  0.000000000000000e+00  0.000000000000000e+00  0.000000000000000e+00  0.000000000000000e+00  0.000000000000000e+00
72  0.000000000000000e+00  0.000000000000000e+00  0.000000000000000e+00  0.000000000000000e+00  0.000000000000000e+00  0.000000000000000e+00
73  0.000000000000000e+00  0.000000000000000e+00  0.000000000000000e+00  0.000000000000000e+00  0.000000000000000e+00  0.000000000000000e+00
74  0.000000000000000e+00  0.000000000000000e+00  0.000000000000000e+00  0.000000000000000e+00  0.000000000000000e+00  0.000000000000000e+00
75  0.000000000000000e+00  0.000000000000000e+00  0.000000000000000e+00  0.000000000000000e+00  0.000000000000000e+00  0.000000000000000e+00
76  0.000000000000000e+00  0.000000000000000e+00  0.000000000000000e+00  0.000000000000000e+00  0.000000000000000e+00  0.000000000000000e+00
77  0.000000000000000e+00  0.000000000000000e+00  0.000000000000000e+00  0.000000000000000e+00  0.000000000000000e+00  0.000000000000000e+00
78  0.000000000000000e+00  0.000000000000000e+00  0.000000000000000e+00  0.000000000000000e+00  0.000000000000000e+00  0.000000000000000e+00
79  0.000000000000000e+00  0.000000000000000e+00  0.000000000000000e+00  0.000000000000000e+00  0.000000000000000e+00  0.000000000000000e+00
80  0.000000000000000e+00  0.000000000000000e+00  0.000000000000000e+00  0.000000000000000e+00  0.000000000000000e+00  0.000000000000000e+00
81  0.000000000000000e+00  0.000000000000000e+00  0.000000000000000e+00  0.000000000000000e+00  0.000000000000000e+00  0.000000000000000e+00
82  0.000000000000000e+00  0.000000000000000e+00  0.000000000000000e+00  0.000000000000000e+00  0.000000000000000e+00  0.000000000000000e+00
83  0.000000000000000e+00  0.000000000000000e+00  0.000000000000000e+00  0.000000000000000e+00  0.000000000000000e+00  0.000000000000000e+00
84  0.000000000000000e+00  0.000000000000000e+00  0.000000000000000e+00  0.000000000000000e+00  0.000000000000000e+00  0.000000000000000e+00
85  0.000000000000000e+00  0.000000000000000e+00  0.000000000000000e+00  0.000000000000000e+00  0.000000000000000e+00  0.000000000000000e+00
86  0.000000000000000e+00  0.000000000000000e+00  0.000000000000000e+00  0.000000000000000e+00  0.000000000000000e+00  0.000000000000000e+00
87  0.000000000000000e+00  0.000000000000000e+00  0.000000000000000e+00  0.000000000000000e+00  0.000000000000000e+00  0.000000000000000e+00
88  0.000000000000000e+00  0.000000000000000e+00  0.000000000000000e+00  0.000000000000000e+00  0.000000000000000e+00  0.000000000000000e+00
89  0.000000000000000e+00  0.000000000000000e+00  0.000000000000000e+00  0.000000000000000e+00  0.000000000000000e+00  0.000000000000000e+00
90  0.000000000000000e+00  0.000000000000000e+00  0.000000000000000e+00  0.000000000000000e+00  0.000000000000000e+00  0.000000000000000e+00
91  0.000000000000000e+00  0.000000000000000e+00  0.000000000000000e+00  0.000000000000000e+00  0.000000000000000e+00  0.000000000000000e+00
92  0.000000000000000e+00  0.000000000000000e+00  0.000000000000000e+00  0.000000000000000e+00  0.000000000000000e+00  0.000000000000000e+00
93  0.000000000000000e+00  0.000000000000000e+00  0.000000000000000e+00  0.000000000000000e+00  0.000000000000000e+00  0.000000000000000e+00
94  0.000000000000000e+00  0.000000000000000e+00  0.000000000000000e+00  0.000000000000000e+00  0.000000000000000e+00  0.000000000000000e+00
95  0.000000000000000e+00  0.000000000000000e+00  0.000000000000000e+00  0.000000000000000e+00  0.000000000000000e+00  0.000000000000000e+00
96  0.000000000000000e+00  0.000000000000000e+00  0.000000000000000e+00  0.000000000000000e+00  0.000000000000000e+00  0.000000000000000e+00
97  0.000000000000000e+00  0.000000000000000e+00  0.000000000000000e+00  0.000000000000000e+00  0.000000000000000e+00  0.000000000000000e+00
98  0.000000000000000e+00  0.000000000000000e+00  0.000000000000000e+00  0.000000000000000e+00  0.000000000000000e+00  0.000000000000000e+00
99  0.000000000000000e+00  0.000000000000000e+00  0.000000000000000e+00  0.000000000000000e+00  0.000000000000000e+00  0.000000000000000e+00
100  0.000000000000000e+00  0.000000000000000e+00  0.000000000000000e+00  0.000000000000000e+00  0.000000000000000e+00  0.000000000000000e+00
101  0.000000000000000e+00  0.000000000000000e+00  0.000000000000000e+00  0.000000000000000e+00  0.000000000000000e+00  0.000000000000000e+00
102  0.000000000000000e+00  0.000000000000000e+00  0.000000000000000e+00  0.000000000000000e+00  0.000000000000000e+00  0.000000000000000e+00
103  0.000000000000000e+00  0.000000000000000e+00  0.000000000000000e+00  0.000000000000000e+00  0.000000000000000e+00  0.000000000000000e+00
104  0.000000000000000e+00  0.000000000000000e+00  0.000000000000000e+00  0.000000000000000e+00  0.000000000000000e+00  0.000000000000000e+00