# LAMMPS data file
231 atoms
231 ellipsoids
226 bonds

4 atom types
1 bond types

# System size
0.000000 34.000000 xlo xhi
0.000000 34.000000 ylo yhi
0.000000 34.000000 zlo zhi

Masses

1 3.1575
2 3.1575
3 3.1575
4 3.1575

# Atom-ID, type, position, molecule-ID, ellipsoid flag, density
Atoms

1 3 -8.190730094909668e+00  4.230524539947510e+00  8.312258720397949e+00 1 1 1
2 2 -7.695524215698242e+00  4.029906272888184e+00  8.368746757507324e+00 1 1 1
3 4 -7.322430133819580e+00  3.643360376358032e+00  8.375564575195312e+00 1 1 1
4 1 -7.105327129364014e+00  3.170935392379761e+00  8.240030288696289e+00 1 1 1
5 3 -7.018831729888916e+00  2.745317935943604e+00  7.923654079437256e+00 1 1 1
6 2 -6.987966060638428e+00  2.481512069702148e+00  7.456582069396973e+00 1 1 1
7 1 -6.916567325592041e+00  2.432896137237549e+00  6.926293373107910e+00 1 1 1
8 2 -6.723869323730469e+00  2.571183443069458e+00  6.444160938262939e+00 1 1 1
9 2 -6.375298500061035e+00  2.797089338302612e+00  6.103411674499512e+00 1 1 1
10 4 -5.895318984985352e+00  2.977953910827637e+00  5.943437099456787e+00 1 1 1
11 1 -5.358460903167725e+00  2.998322486877441e+00  5.934941768646240e+00 1 1 1
12 2 -4.860837936401367e+00  2.803688526153564e+00  5.991250514984131e+00 1 1 1
13 2 -4.483607292175293e+00  2.421199083328247e+00  6.000858783721924e+00 1 1 1
14 2 -4.262222290039062e+00  1.949397206306458e+00  5.870100975036621e+00 1 1 1
15 3 -4.172946929931641e+00  1.520762443542480e+00  5.558730125427246e+00 1 1 1
16 4 -4.141839981079102e+00  1.251361489295959e+00  5.094906330108643e+00 1 1 1
17 1 -4.072770118713379e+00  1.196745276451111e+00  4.564877986907959e+00 1 1 1
18 2 -3.884202480316162e+00  1.330892682075500e+00  4.079944610595703e+00 1 1 1
19 3 -3.539890766143799e+00  1.556097269058228e+00  3.734413385391235e+00 1 1 1
20 1 -3.062760591506958e+00  1.739996075630188e+00  3.569443941116333e+00 1 1 1
21 3 -2.526233673095703e+00  1.765951633453369e+00  3.557693243026733e+00 1 1 1
22 1 -2.026260614395142e+00  1.577319383621216e+00  3.613657712936401e+00 1 1 1
23 1 -1.644949078559875e+00  1.199008584022522e+00  3.626032352447510e+00 1 1 1
24 3 -1.419264197349548e+00  7.279359698295593e-01  3.500110149383545e+00 1 1 1
25 3 -1.327129960060120e+00  2.963294684886932e-01  3.193616390228271e+00 1 1 1
26 3 -1.295639395713806e+00  2.137025073170662e-02  2.733083724975586e+00 1 1 1
27 2 -1.228931665420532e+00 -3.924312815070152e-02  2.203412294387817e+00 1 1 1
28 1 -4.646326005458832e-01 -1.714554429054260e+00  1.204198718070984e+00 1 1 1
29 1 -7.418836355209351e-01 -2.168250322341919e+00  1.126930713653564e+00 1 1 1
30 1 -8.177019357681274e-01 -2.671702146530151e+00  9.552599787712097e-01 1 1 1
31 4 -6.679443717002869e-01 -3.168431043624878e+00  8.155409097671509e-01 1 1 1
32 1 -3.540835678577423e-01 -3.604515075683594e+00  8.220293521881104e-01 1 1 1
33 3 -1.257785770576447e-04 -3.949059247970581e+00  1.033318877220154e+00 1 1 1
34 4  2.549232840538025e-01 -4.205938339233398e+00  1.430375337600708e+00 1 1 1
35 3  3.095157444477081e-01 -4.412392139434814e+00  1.923425078392029e+00 1 1 1
36 3  1.382001787424088e-01 -4.624707698822021e+00  2.386306524276733e+00 1 1 1
37 3 -1.985864192247391e-01 -4.897094249725342e+00  2.704249858856201e+00 1 1 1
38 2 -5.774111151695251e-01 -5.260786533355713e+00  2.817692041397095e+00 1 1 1
39 3 -8.591484427452087e-01 -5.712395191192627e+00  2.744623661041260e+00 1 1 1
40 3 -9.413285851478577e-01 -6.215179920196533e+00  2.573915481567383e+00 1 1 1
41 4 -7.973823547363281e-01 -6.712892055511475e+00  2.431601524353027e+00 1 1 1
42 1 -4.866616129875183e-01 -7.151251316070557e+00  2.432825326919556e+00 1 1 1
43 4 -1.318354755640030e-01 -7.498421192169189e+00  2.638369798660278e+00 1 1 1
44 2  1.276216953992844e-01 -7.757382392883301e+00  3.031186819076538e+00 1 1 1
45 1  1.885294616222382e-01 -7.964561939239502e+00  3.523166179656982e+00 1 1 1
46 4  2.304963953793049e-02 -8.175889015197754e+00  3.988623619079590e+00 1 1 1
47 2 -3.105654716491699e-01 -8.446035385131836e+00  4.311761856079102e+00 1 1 1
48 3  9.058785438537598e+00  6.209965705871582e+00  3.075157165527344e+00 2 1 1
49 2  8.849658012390137e+00  5.715798854827881e+00  3.048274278640747e+00 2 1 1
50 4  8.537191390991211e+00  5.307884216308594e+00  3.205348968505859e+00 2 1 1
51 1  8.112037658691406e+00  5.081025600433350e+00  3.443032741546631e+00 2 1 1
52 3  7.607762336730957e+00  5.061113357543945e+00  3.627341270446777e+00 2 1 1
53 2  7.087838649749756e+00  5.195568084716797e+00  3.644583225250244e+00 2 1 1
54 1  6.621801376342773e+00  5.373007297515869e+00  3.444563627243042e+00 2 1 1
55 3  6.258668422698975e+00  5.465785026550293e+00  3.059586048126221e+00 2 1 1
56 2  6.008371829986572e+00  5.378432273864746e+00  2.592252969741821e+00 2 1 1
57 1  5.837980747222900e+00  5.083935260772705e+00  2.176426887512207e+00 2 1 1
58 4  5.684163093566895e+00  4.633910179138184e+00  1.926430106163025e+00 2 1 1
59 1  5.477358341217041e+00  4.139081001281738e+00  1.893578529357910e+00 2 1 1
60 3  5.168110847473145e+00  3.727225780487061e+00  2.046686649322510e+00 2 1 1
61 4  4.745866298675537e+00  3.494627237319946e+00  2.283870458602905e+00 2 1 1
62 3  4.242974281311035e+00  3.469369649887085e+00  2.471415281295776e+00 2 1 1
63 3  3.722516775131226e+00  3.600810766220093e+00  2.494376420974731e+00 2 1 1
64 4  3.254165172576904e+00  3.778790950775146e+00  2.300355434417725e+00 2 1 1
65 2  2.887827873229980e+00  3.875467538833618e+00  1.919401526451111e+00 2 1 1
66 2  2.634634017944336e+00  3.793918371200562e+00  1.452560663223267e+00 2 1 1
67 3  2.462780237197876e+00  3.504784822463989e+00  1.033561229705811e+00 2 1 1
68 4  2.309494018554688e+00  3.057784318923950e+00  7.778894901275635e-01 2 1 1
69 2  2.104991912841797e+00  2.562476396560669e+00  7.390066385269165e-01 2 1 1
70 1  1.798933148384094e+00  2.146772384643555e+00  8.880492448806763e-01 2 1 1
71 1  1.379565000534058e+00  1.908405542373657e+00  1.124694705009460e+00 2 1 1
72 2  8.781847953796387e-01  1.877717018127441e+00  1.315376877784729e+00 2 1 1
73 4  3.572538793087006e-01  2.006064891815186e+00  1.344000697135925e+00 2 1 1
74 2 -1.110089182853699e+00  1.149667739868164e+00  2.369139432907104e+00 2 1 1
75 2 -1.646463274955750e+00  1.120966076850891e+00  2.382493257522583e+00 2 1 1
76 2 -2.122162103652954e+00  9.356151223182678e-01  2.549938917160034e+00 2 1 1
77 4 -2.464342594146729e+00  7.108021378517151e-01  2.897901535034180e+00 2 1 1
78 4 -2.650847434997559e+00  5.787123441696167e-01  3.384141683578491e+00 2 1 1
79 2 -2.718725681304932e+00  6.363342404365540e-01  3.913992166519165e+00 2 1 1
80 4 -2.750041484832764e+00  9.085348844528198e-01  4.376176834106445e+00 2 1 1
81 2 -2.840757131576538e+00  1.338686704635620e+00  4.685139179229736e+00 2 1 1
82 3 -3.064251422882080e+00  1.810118198394775e+00  4.813474655151367e+00 2 1 1
83 4 -3.443533182144165e+00  2.190505266189575e+00  4.802479743957520e+00 2 1 1
84 1 -3.942324399948120e+00  2.382143020629883e+00  4.746343135833740e+00 2 1 1
85 2 -4.479027271270752e+00  2.358974933624268e+00  4.756372928619385e+00 2 1 1
86 3 -4.957609653472900e+00  2.176594257354736e+00  4.918888092041016e+00 2 1 1
87 3 -5.304069042205811e+00  1.951045513153076e+00  5.262073040008545e+00 2 1 1
88 3 -5.494688987731934e+00  1.814806938171387e+00  5.745557785034180e+00 2 1 1
89 4 -5.564882278442383e+00  1.866398453712463e+00  6.275735378265381e+00 2 1 1
90 1 -5.595870971679688e+00  2.133017539978027e+00  6.741174221038818e+00 2 1 1
91 3 -5.683740615844727e+00  2.560141086578369e+00  7.055081844329834e+00 2 1 1
92 3 -5.902987480163574e+00  3.032278537750244e+00  7.188195705413818e+00 2 1 1
93 3 -1.034784436225891e+00 -1.102869129180908e+01  5.170984268188477e+00 3 1 1
94 2 -7.465056180953979e-01 -1.058022785186768e+01  5.237631320953369e+00 3 1 1
95 4 -3.665811121463776e-01 -1.022053146362305e+01  5.115429878234863e+00 3 1 1
96 1 -3.456258773803711e-02 -9.951514244079590e+00  4.789752960205078e+00 3 1 1
97 3  1.279590725898743e-01 -9.740606307983398e+00  4.323027610778809e+00 3 1 1
98 2  6.390286237001419e-02 -9.533092498779297e+00  3.831618785858154e+00 3 1 1
99 1 -1.976965218782425e-01 -9.273107528686523e+00  3.440941572189331e+00 3 1 1
100 3 -5.529162883758545e-01 -8.924571037292480e+00  3.238330602645874e+00 3 1 1
101 1 -8.620563149452209e-01 -8.485094070434570e+00  3.239664554595947e+00 3 1 1
102 4 -1.003076195716858e+00 -7.986923217773438e+00  3.383247137069702e+00 3 1 1
103 3 -9.177648425102234e-01 -7.484494686126709e+00  3.553399085998535e+00 3 1 1
104 1 -6.338081359863281e-01 -7.033909320831299e+00  3.624372720718384e+00 3 1 1
105 4 -2.545653581619263e-01 -6.671540260314941e+00  3.508025169372559e+00 3 1 1
106 1  8.062184602022171e-02 -6.400297641754150e+00  3.187469959259033e+00 3 1 1
107 2  2.490113526582718e-01 -6.188439846038818e+00  2.723315238952637e+00 3 1 1
108 2  1.913241297006607e-01 -5.981692314147949e+00  2.230772256851196e+00 3 1 1
109 3 -6.598982214927673e-02 -5.723755359649658e+00  1.835817575454712e+00 3 1 1
110 2 -4.203673899173737e-01 -5.377877712249756e+00  1.627424120903015e+00 3 1 1
111 2 -7.327124476432800e-01 -4.940680980682373e+00  1.623528122901917e+00 3 1 1
112 2 -8.795312047004700e-01 -4.443467617034912e+00  1.764572143554688e+00 3 1 1
113 1 -8.005465865135193e-01 -3.940315961837769e+00  1.935788869857788e+00 3 1 1
114 2 -5.210276246070862e-01 -3.487675189971924e+00  2.010956764221191e+00 3 1 1
115 4 -1.426018774509430e-01 -3.122623443603516e+00  1.900457262992859e+00 3 1 1
116 1  1.956792175769806e-01 -2.849165201187134e+00  1.585061073303223e+00 3 1 1
117 4  3.698842227458954e-01 -2.636318445205688e+00  1.123503684997559e+00 3 1 1
118 4  3.185129463672638e-01 -2.430195331573486e+00  6.299910545349121e-01 3 1 1
119 4  6.571212410926819e-02 -2.174318313598633e+00  2.308838218450546e-01 3 1 1
120 3  8.768670558929443e-01 -1.740945219993591e+00 -1.717460870742798e+00 3 1 1
121 3  7.856962680816650e-01 -1.928663969039917e+00 -2.212597131729126e+00 3 1 1
122 4  7.884944677352905e-01 -1.912965297698975e+00 -2.749629735946655e+00 3 1 1
123 1  9.649494290351868e-01 -1.759586691856384e+00 -3.233422517776489e+00 3 1 1
124 2  1.328791975975037e+00 -1.586513161659241e+00 -3.588878870010376e+00 3 1 1
125 3  1.822569727897644e+00 -1.519236803054810e+00 -3.789739131927490e+00 3 1 1
126 1  2.339409589767456e+00 -1.643096208572388e+00 -3.868590831756592e+00 3 1 1
127 2  2.763751029968262e+00 -1.970726132392883e+00 -3.904127359390259e+00 3 1 1
128 2  3.015130519866943e+00 -2.437453269958496e+00 -3.991773128509521e+00 3 1 1
129 4  3.078815698623657e+00 -2.925638198852539e+00 -4.206874847412109e+00 3 1 1
130 3  3.011361122131348e+00 -3.309598922729492e+00 -4.576619625091553e+00 3 1 1
131 1  2.919160366058350e+00 -3.503183603286743e+00 -5.069274425506592e+00 3 1 1
132 3  2.918007135391235e+00 -3.492600917816162e+00 -5.606474876403809e+00 3 1 1
133 4  3.089102745056152e+00 -3.341611146926880e+00 -6.092922687530518e+00 3 1 1
134 4  3.448195219039917e+00 -3.167295932769775e+00 -6.452553749084473e+00 3 1 1
135 3  3.939639568328857e+00 -3.095648288726807e+00 -6.657577037811279e+00 3 1 1
136 1  4.457480907440186e+00 -3.213630199432373e+00 -6.738909721374512e+00 3 1 1
137 2  4.885732650756836e+00 -3.536158084869385e+00 -6.774406909942627e+00 3 1 1
138 4  5.142478466033936e+00 -4.000422477722168e+00 -6.859348773956299e+00 3 1 1
139 3  5.210931301116943e+00 -4.489803791046143e+00 -7.070302486419678e+00 3 1 1
140 3  6.119481563568115e+00 -5.864706039428711e+00 -9.354459762573242e+00 4 1 1
141 2  6.213062763214111e+00 -5.662316799163818e+00 -8.865584373474121e+00 4 1 1
142 4  6.276942253112793e+00 -5.271863460540771e+00 -8.502090454101562e+00 4 1 1
143 1  6.206093311309814e+00 -4.781916141510010e+00 -8.293202400207520e+00 4 1 1
144 3  5.946668148040771e+00 -4.318904399871826e+00 -8.209547042846680e+00 4 1 1
145 2  5.516475200653076e+00 -3.998963594436646e+00 -8.174068450927734e+00 4 1 1
146 1  4.998189926147461e+00 -3.883912324905396e+00 -8.091468811035156e+00 4 1 1
147 2  4.507936000823975e+00 -3.957720518112183e+00 -7.884347915649414e+00 4 1 1
148 1  4.151213169097900e+00 -4.132616519927979e+00 -7.522637367248535e+00 4 1 1
149 3  3.982812643051147e+00 -4.282376766204834e+00 -7.034884929656982e+00 4 1 1
150 4  3.985912799835205e+00 -4.290403366088867e+00 -6.497672080993652e+00 4 1 1
151 2  4.078591823577881e+00 -4.093883037567139e+00 -6.006279468536377e+00 4 1 1
152 1  4.144885540008545e+00 -3.707742452621460e+00 -5.638586997985840e+00 4 1 1
153 1  4.078810691833496e+00 -3.218942880630493e+00 -5.425564765930176e+00 4 1 1
154 2  3.824761152267456e+00 -2.753421783447266e+00 -5.339249610900879e+00 4 1 1
155 4  3.398454427719116e+00 -2.428333044052124e+00 -5.303730964660645e+00 4 1 1
156 2  2.881097555160522e+00 -2.307419538497925e+00 -5.223669052124023e+00 4 1 1
157 1  2.388484001159668e+00 -2.376903772354126e+00 -5.020749092102051e+00 4 1 1
158 3  2.027014017105103e+00 -2.550583600997925e+00 -4.663138866424561e+00 4 1 1
159 3  1.853230357170105e+00 -2.702809095382690e+00 -4.178076744079590e+00 4 1 1
160 4  1.852414965629578e+00 -2.715957403182983e+00 -3.640952825546265e+00 4 1 1
161 2  1.944117546081543e+00 -2.525292158126831e+00 -3.147036314010620e+00 4 1 1
162 3  2.012723207473755e+00 -2.143537044525146e+00 -2.775234699249268e+00 4 1 1
163 4  1.951402544975281e+00 -1.655955910682678e+00 -2.557978868484497e+00 4 1 1
164 1  1.702709674835205e+00 -1.188076496124268e+00 -2.469050884246826e+00 4 1 1
165 2  1.280353903770447e+00 -8.578743934631348e-01 -2.433373928070068e+00 4 1 1
166 2  7.640277147293091e-01 -7.310929298400879e-01 -2.355791091918945e+00 4 1 1
167 3 -7.279090583324432e-02  9.717841148376465e-01 -2.172982215881348e+00 4 1 1
168 4 -6.032377481460571e-01  1.025801181793213e+00 -2.239273309707642e+00 4 1 1
169 1 -1.080420613288879e+00  1.267186403274536e+00 -2.187165975570679e+00 4 1 1
170 2 -1.412923812866211e+00  1.684300541877747e+00 -2.122749090194702e+00 4 1 1
171 3 -1.564293742179871e+00  2.198707818984985e+00 -2.156731843948364e+00 4 1 1
172 2 -1.566900491714478e+00  2.695046663284302e+00 -2.362483263015747e+00 4 1 1
173 4 -1.509628176689148e+00  3.064802408218384e+00 -2.748099803924561e+00 4 1 1
174 2 -1.504108905792236e+00  3.247548103332520e+00 -3.253348350524902e+00 4 1 1
175 2 -1.642300009727478e+00  3.253871202468872e+00 -3.772507905960083e+00 4 1 1
176 2 -1.961590528488159e+00  3.161506175994873e+00 -4.194665431976318e+00 4 1 1
177 1 -2.430542707443237e+00  3.085513353347778e+00 -4.445640563964844e+00 4 1 1
178 3 -2.960875749588013e+00  3.134862661361694e+00 -4.516392707824707e+00 4 1 1
179 3 -3.440960645675659e+00  3.370834827423096e+00 -4.466271877288818e+00 4 1 1
180 4 -3.778301000595093e+00  3.783868312835693e+00 -4.400634765625000e+00 4 1 1
181 4 -3.934601306915283e+00  4.297061920166016e+00 -4.430616855621338e+00 4 1 1
182 1 -3.940341472625732e+00  4.795494079589844e+00 -4.631129264831543e+00 4 1 1
183 4 -3.883223295211792e+00  5.169858455657959e+00 -5.012242317199707e+00 4 1 1
184 3 -3.874819040298462e+00  5.357984542846680e+00 -5.515430450439453e+00 4 1 1
185 3 -4.008203983306885e+00  5.368469715118408e+00 -6.035798072814941e+00 4 1 1
186 2 -4.322560787200928e+00  5.277366161346436e+00 -6.461907863616943e+00 4 1 1
187 3 -6.497223377227783e+00  6.298668861389160e+00 -7.931830883026123e+00 5 1 1
188 2 -5.967257499694824e+00  6.256253242492676e+00 -7.854325294494629e+00 5 1 1
189 4 -5.503092765808105e+00  6.335311889648438e+00 -7.595505714416504e+00 5 1 1
190 1 -5.191217899322510e+00  6.425767898559570e+00 -7.167458534240723e+00 5 1 1
191 3 -5.060231685638428e+00  6.413179397583008e+00 -6.646503925323486e+00 5 1 1
192 2 -5.070026397705078e+00  6.222325325012207e+00 -6.144340515136719e+00 5 1 1
193 1 -5.127023696899414e+00  5.845632076263428e+00 -5.765465259552002e+00 5 1 1
194 3 -5.119692802429199e+00  5.346186161041260e+00 -5.567570209503174e+00 5 1 1
195 2 -4.960923194885254e+00  4.833644866943359e+00 -5.539550304412842e+00 5 1 1
196 2 -4.621177196502686e+00  4.422698974609375e+00 -5.605800151824951e+00 5 1 1
197 1 -4.139663219451904e+00  4.189438819885254e+00 -5.654894828796387e+00 5 1 1
198 4 -3.609441995620728e+00  4.142417907714844e+00 -5.581912994384766e+00 5 1 1
199 1 -3.142067909240723e+00  4.219423294067383e+00 -5.328304767608643e+00 5 1 1
200 1 -2.825230836868286e+00  4.311178684234619e+00 -4.904163360595703e+00 5 1 1
201 2 -2.689446687698364e+00  4.302781105041504e+00 -4.384384155273438e+00 5 1 1
202 2 -2.696424961090088e+00  4.117365360260010e+00 -3.880174875259399e+00 5 1 1
203 4 -2.753628730773926e+00  3.745284557342529e+00 -3.496793508529663e+00 5 1 1
204 3 -2.749455451965332e+00  3.247867107391357e+00 -3.293642044067383e+00 5 1 1
205 3 -2.595624923706055e+00  2.734062910079956e+00 -3.261663913726807e+00 5 1 1
206 3 -2.260703563690186e+00  2.319003343582153e+00 -3.326728105545044e+00 5 1 1
207 1 -1.782059907913208e+00  2.080317258834839e+00 -3.377846479415894e+00 5 1 1
208 3 -1.251661658287048e+00  2.028634309768677e+00 -3.309333562850952e+00 5 1 1
209 2 -7.811450362205505e-01  2.103544473648071e+00 -3.060956478118896e+00 5 1 1
210 3 -4.594040811061859e-01  2.196565628051758e+00 -2.640843868255615e+00 5 1 1
211 4 -3.187807798385620e-01  2.192249059677124e+00 -2.122287511825562e+00 5 1 1
212 1 -3.228406608104706e-01  2.012202262878418e+00 -1.616056323051453e+00 5 1 1
213 1  6.221423745155334e-01  2.269713401794434e+00  2.036849260330200e-01 5 1 1
214 3  7.751901149749756e-01  2.715191841125488e+00  4.621706902980804e-01 5 1 1
215 4  9.478076696395874e-01  3.001581430435181e+00  8.827356696128845e-01 5 1 1
216 4  1.202437162399292e+00  3.080293178558350e+00  1.349267244338989e+00 5 1 1
217 3  1.570380568504333e+00  2.981665134429932e+00  1.728190779685974e+00 5 1 1
218 1  2.039872646331787e+00  2.803440332412720e+00  1.919207930564880e+00 5 1 1
219 2  2.560584068298340e+00  2.673518419265747e+00  1.893413782119751e+00 5 1 1
220 3  3.062716245651245e+00  2.701460599899292e+00  1.704306960105896e+00 5 1 1
221 3  3.483522176742554e+00  2.936997652053833e+00  1.467353343963623e+00 5 1 1
222 1  3.791178941726685e+00  3.350746154785156e+00  1.316285133361816e+00 5 1 1
223 2  3.996810913085938e+00  3.845865011215210e+00  1.352131128311157e+00 5 1 1
224 2  4.150346279144287e+00  4.294380664825439e+00  1.604983210563660e+00 5 1 1
225 1  4.321500778198242e+00  4.586203098297119e+00  2.022398710250854e+00 5 1 1
226 2  4.573229312896729e+00  4.670686244964600e+00  2.489487409591675e+00 5 1 1
227 4  4.937975883483887e+00  4.575911521911621e+00  2.872480154037476e+00 5 1 1
228 1  5.405193805694580e+00  4.398163318634033e+00  3.069506406784058e+00 5 1 1
229 4  5.925374984741211e+00  4.265219211578369e+00  3.049394607543945e+00 5 1 1
230 3  6.428957462310791e+00  4.287795543670654e+00  2.863467454910278e+00 5 1 1
231 2  6.852673053741455e+00  4.517519474029541e+00  2.626013517379761e+00 5 1 1

# Atom-ID, translational, rotational velocity
Velocities

1  0.000000000000000e+00  0.000000000000000e+00  0.000000000000000e+00  0.000000000000000e+00  0.000000000000000e+00  0.000000000000000e+00
2  0.000000000000000e+00  0.000000000000000e+00  0.000000000000000e+00  0.000000000000000e+00  0.000000000000000e+00  0.000000000000000e+00
3  0.000000000000000e+00  0.000000000000000e+00  0.000000000000000e+00  0.000000000000000e+00  0.000000000000000e+00  0.000000000000000e+00
4  0.000000000000000e+00  0.000000000000000e+00  0.000000000000000e+00  0.000000000000000e+00  0.000000000000000e+00  0.000000000000000e+00
5  0.000000000000000e+00  0.000000000000000e+00  0.000000000000000e+00  0.000000000000000e+00  0.000000000000000e+00  0.000000000000000e+00
6  0.000000000000000e+00  0.000000000000000e+00  0.000000000000000e+00  0.000000000000000e+00  0.000000000000000e+00  0.000000000000000e+00
7  0.000000000000000e+00  0.000000000000000e+00  0.000000000000000e+00  0.000000000000000e+00  0.000000000000000e+00  0.000000000000000e+00
8  0.000000000000000e+00  0.000000000000000e+00  0.000000000000000e+00  0.000000000000000e+00  0.000000000000000e+00  0.000000000000000e+00
9  0.000000000000000e+00  0.000000000000000e+00  0.000000000000000e+00  0.000000000000000e+00  0.000000000000000e+00  0.000000000000000e+00
10  0.000000000000000e+00  0.000000000000000e+00  0.000000000000000e+00  0.000000000000000e+00  0.000000000000000e+00  0.000000000000000e+00
11  0.000000000000000e+00  0.000000000000000e+00  0.000000000000000e+00  0.000000000000000e+00  0.000000000000000e+00  0.000000000000000e+00
12  0.000000000000000e+00  0.000000000000000e+00  0.000000000000000e+00  0.000000000000000e+00  0.000000000000000e+00  0.000000000000000e+00
13  0.000000000000000e+00  0.000000000000000e+00  0.000000000000000e+00  0.000000000000000e+00  0.000000000000000e+00  0.000000000000000e+00
14  0.000000000000000e+00  0.000000000000000e+00  0.000000000000000e+00  0.000000000000000e+00  0.000000000000000e+00  0.000000000000000e+00
15  0.000000000000000e+00  0.000000000000000e+00  0.000000000000000e+00  0.000000000000000e+00  0.000000000000000e+00  0.000000000000000e+00
16  0.000000000000000e+00  0.000000000000000e+00  0.000000000000000e+00  0.000000000000000e+00  0.000000000000000e+00  0.000000000000000e+00
17  0.000000000000000e+00  0.000000000000000e+00  0.000000000000000e+00  0.000000000000000e+00  0.000000000000000e+00  0.000000000000000e+00
18  0.000000000000000e+00  0.000000000000000e+00  0.000000000000000e+00  0.000000000000000e+00  0.000000000000000e+00  0.000000000000000e+00
19  0.000000000000000e+00  0.000000000000000e+00  0.000000000000000e+00  0.000000000000000e+00  0.000000000000000e+00  0.000000000000000e+00
20  0.000000000000000e+00  0.000000000000000e+00  0.000000000000000e+00  0.000000000000000e+00  0.000000000000000e+00  0.000000000000000e+00
21  0.000000000000000e+00  0.000000000000000e+00  0.000000000000000e+00  0.000000000000000e+00  0.000000000000000e+00  0.000000000000000e+00
22  0.000000000000000e+00  0.000000000000000e+00  0.000000000000000e+00  0.000000000000000e+00  0.000000000000000e+00  0.000000000000000e+00
23  0.000000000000000e+00  0.000000000000000e+00  0.000000000000000e+00  0.000000000000000e+00  0.000000000000000e+00  0.000000000000000e+00
24  0.000000000000000e+00  0.000000000000000e+00  0.000000000000000e+00  0.000000000000000e+00  0.000000000000000e+00  0.000000000000000e+00
25  0.000000000000000e+00  0.000000000000000e+00  0.000000000000000e+00  0.000000000000000e+00  0.000000000000000e+00  0.000000000000000e+00
26  0.000000000000000e+00  0.000000000000000e+00  0.000000000000000e+00  0.000000000000000e+00  0.000000000000000e+00  0.000000000000000e+00
27  0.000000000000000e+00  0.000000000000000e+00  0.000000000000000e+00  0.000000000000000e+00  0.000000000000000e+00  0.000000000000000e+00
28  0.000000000000000e+00  0.000000000000000e+00  0.000000000000000e+00  0.000000000000000e+00  0.000000000000000e+00  0.000000000000000e+00
29  0.000000000000000e+00  0.000000000000000e+00  0.000000000000000e+00  0.000000000000000e+00  0.000000000000000e+00  0.000000000000000e+00
30  0.000000000000000e+00  0.000000000000000e+00  0.000000000000000e+00  0.000000000000000e+00  0.000000000000000e+00  0.000000000000000e+00
31  0.000000000000000e+00  0.000000000000000e+00  0.000000000000000e+00  0.000000000000000e+00  0.000000000000000e+00  0.000000000000000e+00
32  0.000000000000000e+00  0.000000000000000e+00  0.000000000000000e+00  0.000000000000000e+00  0.000000000000000e+00  0.000000000000000e+00
33  0.000000000000000e+00  0.000000000000000e+00  0.000000000000000e+00  0.000000000000000e+00  0.000000000000000e+00  0.000000000000000e+00
34  0.000000000000000e+00  0.000000000000000e+00  0.000000000000000e+00  0.000000000000000e+00  0.000000000000000e+00  0.000000000000000e+00
35  0.000000000000000e+00  0.000000000000000e+00  0.000000000000000e+00  0.000000000000000e+00  0.000000000000000e+00  0.000000000000000e+00
36  0.000000000000000e+00  0.000000000000000e+00  0.000000000000000e+00  0.000000000000000e+00  0.000000000000000e+00  0.000000000000000e+00
37  0.000000000000000e+00  0.000000000000000e+00  0.000000000000000e+00  0.000000000000000e+00  0.000000000000000e+00  0.000000000000000e+00
38  0.000000000000000e+00  0.000000000000000e+00  0.000000000000000e+00  0.000000000000000e+00  0.000000000000000e+00  0.000000000000000e+00
39  0.000000000000000e+00  0.000000000000000e+00  0.000000000000000e+00  0.000000000000000e+00  0.000000000000000e+00  0.000000000000000e+00
40  0.000000000000000e+00  0.000000000000000e+00  0.000000000000000e+00  0.000000000000000e+00  0.000000000000000e+00  0.000000000000000e+00
41  0.000000000000000e+00  0.000000000000000e+00  0.000000000000000e+00  0.000000000000000e+00  0.000000000000000e+00  0.000000000000000e+00
42  0.000000000000000e+00  0.000000000000000e+00  0.000000000000000e+00  0.000000000000000e+00  0.000000000000000e+00  0.000000000000000e+00
43  0.000000000000000e+00  0.000000000000000e+00  0.000000000000000e+00  0.000000000000000e+00  0.000000000000000e+00  0.000000000000000e+00
44  0.000000000000000e+00  0.000000000000000e+00  0.000000000000000e+00  0.000000000000000e+00  0.000000000000000e+00  0.000000000000000e+00
45  0.000000000000000e+00  0.000000000000000e+00  0.000000000000000e+00  0.000000000000000e+00  0.000000000000000e+00  0.000000000000000e+00
46  0.000000000000000e+00  0.000000000000000e+00  0.000000000000000e+00  0.000000000000000e+00  0.000000000000000e+00  0.000000000000000e+00
47  0.000000000000000e+00  0.000000000000000e+00  0.000000000000000e+00  0.000000000000000e+00  0.000000000000000e+00  0.000000000000000e+00
48  0.000000000000000e+00  0.000000000000000e+00  0.000000000000000e+00  0.000000000000000e+00  0.000000000000000e+00  0.000000000000000e+00
49  0.000000000000000e+00  0.000000000000000e+00  0.000000000000000e+00  0.000000000000000e+00  0.000000000000000e+00  0.000000000000000e+00
50  0.000000000000000e+00  0.000000000000000e+00  0.000000000000000e+00  0.000000000000000e+00  0.000000000000000e+00  0.000000000000000e+00
51  0.000000000000000e+00  0.000000000000000e+00  0.000000000000000e+00  0.000000000000000e+00  0.000000000000000e+00  0.000000000000000e+00
52  0.000000000000000e+00  0.000000000000000e+00  0.000000000000000e+00  0.000000000000000e+00  0.000000000000000e+00  0.000000000000000e+00
53  0.000000000000000e+00  0.000000000000000e+00  0.000000000000000e+00  0.000000000000000e+00  0.000000000000000e+00  0.000000000000000e+00
54  0.000000000000000e+00  0.000000000000000e+00  0.000000000000000e+00  0.000000000000000e+00  0.000000000000000e+00  0.000000000000000e+00
55  0.000000000000000e+00  0.000000000000000e+00  0.000000000000000e+00  0.000000000000000e+00  0.000000000000000e+00  0.000000000000000e+00
56  0.000000000000000e+00  0.000000000000000e+00  0.000000000000000e+00  0.000000000000000e+00  0.000000000000000e+00  0.000000000000000e+00
57  0.000000000000000e+00  0.000000000000000e+00  0.000000000000000e+00  0.000000000000000e+00  0.000000000000000e+00  0.000000000000000e+00
58  0.000000000000000e+00  0.000000000000000e+00  0.000000000000000e+00  0.000000000000000e+00  0.000000000000000e+00  0.000000000000000e+00
59  0.000000000000000e+00  0.000000000000000e+00  0.000000000000000e+00  0.000000000000000e+00  0.000000000000000e+00  0.000000000000000e+00
60  0.000000000000000e+00  0.000000000000000e+00  0.000000000000000e+00  0.000000000000000e+00  0.000000000000000e+00  0.000000000000000e+00
61  0.000000000000000e+00  0.000000000000000e+00  0.000000000000000e+00  0.000000000000000e+00  0.000000000000000e+00  0.000000000000000e+00
62  0.000000000000000e+00  0.000000000000000e+00  0.000000000000000e+00  0.000000000000000e+00  0.000000000000000e+00  0.000000000000000e+00
63  0.000000000000000e+00  0.000000000000000e+00  0.000000000000000e+00  0.000000000000000e+00  0.000000000000000e+00  0.000000000000000e+00
64  0.000000000000000e+00  0.000000000000000e+00  0.000000000000000e+00  0.000000000000000e+00  0.000000000000000e+00  0.000000000000000e+00
65  0.000000000000000e+00  0.000000000000000e+00  0.000000000000000e+00  0.000000000000000e+00  0.000000000000000e+00  0.000000000000000e+00
66  0.000000000000000e+00  0.000000000000000e+00  0.000000000000000e+00  0.000000000000000e+00  0.000000000000000e+00  0.000000000000000e+00
67  0.000000000000000e+00  0.000000000000000e+00  0.000000000000000e+00  0.000000000000000e+00  0.000000000000000e+00  0.000000000000000e+00
68  0.000000000000000e+00  0.000000000000000e+00  0.000000000000000e+00  0.000000000000000e+00  0.000000000000000e+00  0.000000000000000e+00
69  0.000000000000000e+00  0.000000000000000e+00  0.000000000000000e+00  0.000000000000000e+00  0.000000000000000e+00  0.000000000000000e+00
70  0.000000000000000e+00  0.000000000000000e+00  0.000000000000000e+00  0.000000000000000e+00  0.000000000000000e+00  0.000000000000000e+00
71  0.000000000000000e+00  0.000000000000000e+00  0.000000000000000e+00  0.000000000000000e+00  0.000000000000000e+00  0.000000000000000e+00
72  0.000000000000000e+00  0.000000000000000e+00  0.000000000000000e+00  0.000000000000000e+00  0.000000000000000e+00  0.000000000000000e+00
73  0.000000000000000e+00  0.000000000000000e+00  0.000000000000000e+00  0.000000000000000e+00  0.000000000000000e+00  0.000000000000000e+00
74  0.000000000000000e+00  0.000000000000000e+00  0.000000000000000e+00  0.000000000000000e+00  0.000000000000000e+00  0.000000000000000e+00
75  0.000000000000000e+00  0.000000000000000e+00  0.000000000000000e+00  0.000000000000000e+00  0.000000000000000e+00  0.000000000000000e+00
76  0.000000000000000e+00  0.000000000000000e+00  0.000000000000000e+00  0.000000000000000e+00  0.000000000000000e+00  0.000000000000000e+00
77  0.000000000000000e+00  0.000000000000000e+00  0.000000000000000e+00  0.000000000000000e+00  0.000000000000000e+00  0.000000000000000e+00
78  0.000000000000000e+00  0.000000000000000e+00  0.000000000000000e+00  0.000000000000000e+00  0.000000000000000e+00  0.000000000000000e+00