# LAMMPS data file
278 atoms
278 ellipsoids
272 bonds

4 atom types
1 bond types

# System size
0.000000 31.000000 xlo xhi
0.000000 31.000000 ylo yhi
0.000000 31.000000 zlo zhi

Masses

1 3.1575
2 3.1575
3 3.1575
4 3.1575

# Atom-ID, type, position, molecule-ID, ellipsoid flag, density
Atoms

1 3 -9.622565269470215e+00  4.999264240264893e+00  5.679544925689697e+00 1 1 1
2 2 -9.160254478454590e+00  4.839985847473145e+00  5.902078628540039e+00 1 1 1
3 4 -8.801060676574707e+00  4.482326507568359e+00  6.080296039581299e+00 1 1 1
4 1 -8.553126335144043e+00  4.005984783172607e+00  6.098801612854004e+00 1 1 1
5 3 -8.382140159606934e+00  3.535841703414917e+00  5.902867317199707e+00 1 1 1
6 2 -8.224702835083008e+00  3.194286108016968e+00  5.519153594970703e+00 1 1 1
7 1 -8.012092590332031e+00  3.054879188537598e+00  5.045822143554688e+00 1 1 1
8 2 -7.696679115295410e+00  3.114502668380737e+00  4.614907741546631e+00 1 1 1
9 2 -7.269873142242432e+00  3.294271945953369e+00  4.342520713806152e+00 1 1 1
10 4 -6.765420436859131e+00  3.469747543334961e+00  4.284395217895508e+00 1 1 1
11 1 -6.246418952941895e+00  3.518029928207397e+00  4.414843559265137e+00 1 1 1
12 2 -5.781713008880615e+00  3.364707946777344e+00  4.636727809906006e+00 1 1 1
13 2 -5.419407844543457e+00  3.011836290359497e+00  4.818006515502930e+00 1 1 1
14 2 -5.168621063232422e+00  2.537263393402100e+00  4.842014789581299e+00 1 1 1
15 3 -4.996275901794434e+00  2.065128087997437e+00  4.652094364166260e+00 1 1 1
16 4 -4.839423179626465e+00  1.718667149543762e+00  4.272562503814697e+00 1 1 1
17 1 -4.629122257232666e+00  1.573354840278625e+00  3.799978017807007e+00 1 1 1
18 2 -4.316903114318848e+00  1.628139376640320e+00  3.366112470626831e+00 1 1 1
19 3 -3.892999172210693e+00  1.806137323379517e+00  3.088198423385620e+00 1 1 1
20 1 -3.389855384826660e+00  1.983492016792297e+00  3.024010658264160e+00 1 1 1
21 3 -2.870314598083496e+00  2.036705255508423e+00  3.150249481201172e+00 1 1 1
22 1 -2.403325557708740e+00  1.889350295066833e+00  3.371329784393311e+00 1 1 1
23 1 -2.037816762924194e+00  1.541250228881836e+00  3.555439233779907e+00 1 1 1
24 3 -1.784188866615295e+00  1.068490743637085e+00  3.585082769393921e+00 1 1 1
25 3 -1.610441327095032e+00  5.945074558258057e-01  3.401056289672852e+00 1 1 1
26 3 -1.454108595848083e+00  2.432050257921219e-01  3.025816679000854e+00 1 1 1
27 2 -1.246119976043701e+00  9.192340075969696e-02  2.554090738296509e+00 1 1 1
28 1 -2.610641121864319e-01 -1.883264660835266e+00  2.138176918029785e+00 1 1 1
29 1 -5.035531520843506e-01 -2.362635850906372e+00  2.147672653198242e+00 1 1 1
30 1 -5.332733392715454e-01 -2.896618604660034e+00  2.096415758132935e+00 1 1 1
31 4 -3.428543508052826e-01 -3.399020195007324e+00  2.094974040985107e+00 1 1 1
32 1 -8.452412672340870e-03 -3.795564174652100e+00  2.235110282897949e+00 1 1 1
33 3  3.388725519180298e-01 -4.052267074584961e+00  2.554736852645874e+00 1 1 1
34 4  5.633695125579834e-01 -4.188110351562500e+00  3.023607730865479e+00 1 1 1
35 3  5.757737159729004e-01 -4.268135070800781e+00  3.554765224456787e+00 1 1 1
36 3  3.674748837947845e-01 -4.378639698028564e+00  4.037576198577881e+00 1 1 1
37 3  1.374664716422558e-02 -4.594220638275146e+00  4.379772186279297e+00 1 1 1
38 2 -3.549674451351166e-01 -4.949526309967041e+00  4.542540550231934e+00 1 1 1
39 3 -6.024402976036072e-01 -5.426222801208496e+00  4.555182933807373e+00 1 1 1
40 3 -6.385762095451355e-01 -5.959860324859619e+00  4.504102230072021e+00 1 1 1
41 4 -4.535978436470032e-01 -6.464262962341309e+00  4.499873161315918e+00 1 1 1
42 1 -1.216546893119812e-01 -6.864505290985107e+00  4.635206222534180e+00 1 1 1
43 4  2.272745817899704e-01 -7.125036239624023e+00  4.949955463409424e+00 1 1 1
44 2  4.567081630229950e-01 -7.263523578643799e+00  5.415638446807861e+00 1 1 1
45 1  4.755149781703949e-01 -7.344054222106934e+00  5.946546077728271e+00 1 1 1
46 4  2.727377414703369e-01 -7.452524185180664e+00  6.432161331176758e+00 1 1 1
47 2 -7.856538146734238e-02 -7.664485931396484e+00  6.779040813446045e+00 1 1 1
48 3  8.356061935424805e+00  6.094820976257324e+00  6.186564445495605e+00 2 1 1
49 2  8.176037788391113e+00  5.615323543548584e+00  6.024335861206055e+00 2 1 1
50 4  7.851480484008789e+00  5.187190532684326e+00  6.030721664428711e+00 2 1 1
51 1  7.392696380615234e+00  4.922671318054199e+00  6.121948242187500e+00 2 1 1
52 3  6.861220836639404e+00  4.871934890747070e+00  6.181795120239258e+00 2 1 1
53 2  6.345859527587891e+00  5.003766536712646e+00  6.106194496154785e+00 2 1 1
54 1  5.929519653320312e+00  5.217740058898926e+00  5.842445850372314e+00 2 1 1
55 3  5.657442092895508e+00  5.382133483886719e+00  5.409303665161133e+00 2 1 1
56 2  5.520043849945068e+00  5.384122848510742e+00  4.889871120452881e+00 2 1 1
57 1  5.456583499908447e+00  5.172510623931885e+00  4.400084972381592e+00 2 1 1
58 4  5.378204345703125e+00  4.777327060699463e+00  4.044611930847168e+00 2 1 1
59 1  5.201769351959229e+00  4.298300743103027e+00  3.877016067504883e+00 2 1 1
60 3  4.881364822387695e+00  3.866998434066772e+00  3.879624605178833e+00 2 1 1
61 4  4.425739288330078e+00  3.596946001052856e+00  3.969927787780762e+00 2 1 1
62 3  3.895108461380005e+00  3.540259361267090e+00  4.032276630401611e+00 2 1 1
63 3  3.378052711486816e+00  3.668131113052368e+00  3.961473941802979e+00 2 1 1
64 4  2.958135366439819e+00  3.881583452224731e+00  3.703051805496216e+00 2 1 1
65 2  2.681912183761597e+00  4.049067497253418e+00  3.273746728897095e+00 2 1 1
66 2  2.541378498077393e+00  4.056617259979248e+00  2.755172491073608e+00 2 1 1
67 3  2.476997375488281e+00  3.850935459136963e+00  2.263037681579590e+00 2 1 1
68 4  2.400268793106079e+00  3.459775447845459e+00  1.902732968330383e+00 2 1 1
69 2  2.227407932281494e+00  2.981318473815918e+00  1.729884505271912e+00 2 1 1
70 1  1.911126971244812e+00  2.546940326690674e+00  1.728598713874817e+00 2 1 1
71 1  1.458674311637878e+00  2.271364212036133e+00  1.817973732948303e+00 2 1 1
72 2  9.289559125900269e-01  2.208745241165161e+00  1.882662177085876e+00 2 1 1
73 4  4.103287756443024e-01  2.332564830780029e+00  1.816657066345215e+00 2 1 1
74 2 -1.182338356971741e+00  1.295976400375366e+00  2.518050670623779e+00 2 1 1
75 2 -1.702100157737732e+00  1.240392923355103e+00  2.393876075744629e+00 2 1 1
76 2 -2.204465389251709e+00  1.062055349349976e+00  2.461096048355103e+00 2 1 1
77 4 -2.627019166946411e+00  8.850399255752563e-01  2.741778373718262e+00 2 1 1
78 4 -2.937657117843628e+00  8.325565457344055e-01  3.177053451538086e+00 2 1 1
79 2 -3.146753311157227e+00  9.809086918830872e-01  3.649198770523071e+00 2 1 1
80 4 -3.303396940231323e+00  1.329800128936768e+00  4.026595592498779e+00 2 1 1
81 2 -3.476457118988037e+00  1.802883625030518e+00  4.213568210601807e+00 2 1 1
82 3 -3.728558540344238e+00  2.276574373245239e+00  4.186743259429932e+00 2 1 1
83 4 -4.092560291290283e+00  2.627075195312500e+00  4.004082679748535e+00 2 1 1
84 1 -4.558397293090820e+00  2.777390956878662e+00  3.782605886459351e+00 2 1 1
85 2 -5.077637672424316e+00  2.726646184921265e+00  3.654141664505005e+00 2 1 1
86 3 -5.581449985504150e+00  2.550187349319458e+00  3.715322732925415e+00 2 1 1
87 3 -6.006810188293457e+00  2.371317386627197e+00  3.990565776824951e+00 2 1 1
88 3 -6.320625305175781e+00  2.314074277877808e+00  4.422895908355713e+00 2 1 1
89 4 -6.532075881958008e+00  2.456434249877930e+00  4.895879268646240e+00 2 1 1
90 1 -6.689205169677734e+00  2.800481081008911e+00  5.277452468872070e+00 2 1 1
91 3 -6.860848903656006e+00  3.271598815917969e+00  5.470459938049316e+00 2 1 1
92 3 -7.110224246978760e+00  3.747117280960083e+00  5.449162483215332e+00 2 1 1
93 3  9.445794671773911e-02  1.010776901245117e+01 -7.991152286529541e+00 3 1 1
94 2  4.183197021484375e-01  9.705348968505859e+00 -7.843324184417725e+00 3 1 1
95 4  7.468562126159668e-01  9.438562393188477e+00 -7.512333869934082e+00 3 1 1
96 1  9.458984136581421e-01  9.290094375610352e+00 -7.035844802856445e+00 3 1 1
97 3  9.303481578826904e-01  9.197707176208496e+00 -6.506762027740479e+00 3 1 1
98 2  6.966630220413208e-01  9.077938079833984e+00 -6.038040161132812e+00 3 1 1
99 1  3.242485225200653e-01  8.857534408569336e+00 -5.719575881958008e+00 3 1 1
100 3 -5.482533201575279e-02  8.501658439636230e+00 -5.584321498870850e+00 3 1 1
101 2 -3.060920536518097e-01  8.026839256286621e+00 -5.595508098602295e+00 3 1 1
102 2 -3.433289229869843e-01  7.494843482971191e+00 -5.660843372344971e+00 3 1 1
103 1 -1.619795709848404e-01  6.989109039306641e+00 -5.667382240295410e+00 3 1 1
104 4  1.597425192594528e-01  6.583201885223389e+00 -5.524480819702148e+00 3 1 1
105 1  4.901178181171417e-01  6.312596797943115e+00 -5.198440551757812e+00 3 1 1
106 1  6.942422986030579e-01  6.161554813385010e+00 -4.724943637847900e+00 3 1 1
107 2  6.850860714912415e-01  6.068720340728760e+00 -4.195803642272949e+00 3 1 1
108 2  4.567918181419373e-01  5.950770854949951e+00 -3.723948955535889e+00 3 1 1
109 4  8.653999865055084e-02  5.733901500701904e+00 -3.400592327117920e+00 3 1 1
110 3 -2.943172752857208e-01  5.381792545318604e+00 -3.260379552841187e+00 3 1 1
111 3 -5.505865812301636e-01  4.909602642059326e+00 -3.268564701080322e+00 3 1 1
112 3 -5.942562818527222e-01  4.378113269805908e+00 -3.333903789520264e+00 3 1 1
113 1 -4.182750284671783e-01  3.870537519454956e+00 -3.343498706817627e+00 3 1 1
114 3 -9.887561202049255e-02  3.461093187332153e+00 -3.205585956573486e+00 3 1 1
115 2  2.332541495561600e-01  3.186716318130493e+00 -2.884440660476685e+00 3 1 1
116 3  4.423352777957916e-01  3.032986879348755e+00 -2.413996934890747e+00 3 1 1
117 4  4.396428167819977e-01  2.939666032791138e+00 -1.884897708892822e+00 3 1 1
118 1  2.167145758867264e-01  2.823543787002563e+00 -1.409985899925232e+00 3 1 1
119 1  9.112725853919983e-01  2.800961494445801e+00  8.319002985954285e-01 3 1 1
120 3  9.871733188629150e-01  3.190133094787598e+00  1.194522261619568e+00 3 1 1
121 4  1.052025556564331e+00  3.392794847488403e+00  1.687883019447327e+00 3 1 1
122 4  1.194142103195190e+00  3.382507085800171e+00  2.205929040908813e+00 3 1 1
123 3  1.472491979598999e+00  3.213441848754883e+00  2.633297920227051e+00 3 1 1
124 1  1.894158363342285e+00  3.000333070755005e+00  2.889072179794312e+00 3 1 1
125 2  2.412027835845947e+00  2.874455213546753e+00  2.957499980926514e+00 3 1 1
126 3  2.942186832427979e+00  2.934070587158203e+00  2.893975973129272e+00 3 1 1
127 3  3.396262407302856e+00  3.206990242004395e+00  2.804070711135864e+00 3 1 1
128 1  3.714586973190308e+00  3.639807224273682e+00  2.803450107574463e+00 3 1 1
129 2  3.889221668243408e+00  4.118556022644043e+00  2.973640680313110e+00 3 1 1
130 2  3.966771841049194e+00  4.511796474456787e+00  3.331511020660400e+00 3 1 1
131 1  4.030703544616699e+00  4.720392227172852e+00  3.822527647018433e+00 3 1 1
132 2  4.169655323028564e+00  4.715634822845459e+00  4.341503620147705e+00 3 1 1
133 4  4.443847179412842e+00  4.549700260162354e+00  4.772778987884521e+00 3 1 1
134 1  4.861931324005127e+00  4.335934162139893e+00  5.033876895904541e+00 3 1 1
135 4  5.378131866455078e+00  4.206034183502197e+00  5.107071399688721e+00 3 1 1
136 3  5.909212589263916e+00  4.259765625000000e+00  5.045969009399414e+00 3 1 1
137 2  6.366446971893311e+00  4.527069091796875e+00  4.955187797546387e+00 3 1 1
138 3 -7.505033016204834e-01 -1.002177047729492e+01  8.166373252868652e+00 4 1 1
139 2 -4.956337213516235e-01 -9.549057006835938e+00  8.148824691772461e+00 4 1 1
140 4 -1.246933117508888e-01 -9.199598312377930e+00  7.978646755218506e+00 4 1 1
141 1  2.252813726663589e-01 -8.989473342895508e+00  7.629384517669678e+00 4 1 1
142 3  4.253016114234924e-01 -8.881985664367676e+00  7.142388820648193e+00 4 1 1
143 2  4.032979011535645e-01 -8.801213264465332e+00  6.611717700958252e+00 4 1 1
144 1  1.714313626289368e-01 -8.661369323730469e+00  6.147600173950195e+00 4 1 1
145 3 -1.782743930816650e-01 -8.398881912231445e+00  5.835340023040771e+00 4 1 1
146 1 -5.090072751045227e-01 -7.996893405914307e+00  5.702380657196045e+00 4 1 1
147 4 -6.912306547164917e-01 -7.491506099700928e+00  5.707988262176514e+00 4 1 1
148 3 -6.518633961677551e-01 -6.958105087280273e+00  5.758921623229980e+00 4 1 1
149 1 -4.018645286560059e-01 -6.482674598693848e+00  5.744634628295898e+00 4 1 1
150 4 -3.240320459008217e-02 -6.129311084747314e+00  5.579424381256104e+00 4 1 1
151 1  3.201614022254944e-01 -5.915570259094238e+00  5.234856605529785e+00 4 1 1
152 2  5.256712436676025e-01 -5.806106567382812e+00  4.750674724578857e+00 4 1 1
153 2  5.100131630897522e-01 -5.725844383239746e+00  4.219589710235596e+00 4 1 1
154 3  2.830739617347717e-01 -5.588662624359131e+00  3.752285480499268e+00 4 1 1
155 2 -6.504976749420166e-02 -5.330033779144287e+00  3.435160636901855e+00 4 1 1
156 2 -3.982695639133453e-01 -4.931674003601074e+00  3.297347784042358e+00 4 1 1
157 2 -5.859745144844055e-01 -4.428234577178955e+00  3.300270080566406e+00 4 1 1
158 1 -5.530388355255127e-01 -3.894394874572754e+00  3.351468324661255e+00 4 1 1
159 2 -3.079910576343536e-01 -3.416383743286133e+00  3.340323448181152e+00 4 1 1
160 4  5.987076833844185e-02 -3.059135437011719e+00  3.180030584335327e+00 4 1 1
161 1  4.148094356060028e-01 -2.841808319091797e+00  2.840211153030396e+00 4 1 1
162 4  6.257895231246948e-01 -2.730288267135620e+00  2.358798027038574e+00 4 1 1
163 4  6.166020631790161e-01 -2.650386571884155e+00  1.827581644058228e+00 4 1 1
164 4  3.946561813354492e-01 -2.515805482864380e+00  1.357158899307251e+00 4 1 1
165 3  1.432560801506042e+00 -2.480543613433838e+00 -6.449585556983948e-01 4 1 1
166 2  1.589811801910400e+00 -2.861605882644653e+00 -9.896625280380249e-01 4 1 1
167 3  1.739372491836548e+00 -3.057450056076050e+00 -1.467073202133179e+00 4 1 1
168 4  1.951382517814636e+00 -3.034653425216675e+00 -1.960254549980164e+00 4 1 1
169 1  2.272230386734009e+00 -2.842720746994019e+00 -2.346163511276245e+00 4 1 1
170 3  2.706958055496216e+00 -2.595468521118164e+00 -2.542507171630859e+00 4 1 1
171 4  3.217398166656494e+00 -2.427700996398926e+00 -2.539047479629517e+00 4 1 1
172 2  3.736495018005371e+00 -2.444062471389771e+00 -2.401477813720703e+00 4 1 1
173 1  4.194053173065186e+00 -2.679183959960938e+00 -2.246361494064331e+00 4 1 1
174 1  4.543158054351807e+00 -3.084636926651001e+00 -2.197044372558594e+00 4 1 1
175 2  4.778039455413818e+00 -3.547233343124390e+00 -2.336543560028076e+00 4 1 1
176 3  4.936534404754639e+00 -3.932150363922119e+00 -2.676262617111206e+00 4 1 1
177 2  5.085325241088867e+00 -4.134050846099854e+00 -3.151455879211426e+00 4 1 1
178 2  5.294787406921387e+00 -4.117022037506104e+00 -3.645926237106323e+00 4 1 1
179 3  5.612349987030029e+00 -3.928525209426880e+00 -4.036207675933838e+00 4 1 1
180 2  6.044219493865967e+00 -3.680942296981812e+00 -4.238357067108154e+00 4 1 1
181 3  6.553397655487061e+00 -3.509317636489868e+00 -4.239879131317139e+00 4 1 1
182 3  7.073262214660645e+00 -3.519656181335449e+00 -4.104576110839844e+00 4 1 1
183 2  7.533329486846924e+00 -3.748993158340454e+00 -3.948239803314209e+00 4 1 1
184 3  7.885762691497803e+00 -4.150960445404053e+00 -3.894532203674316e+00 4 1 1
185 3 -8.427742004394531e+00 -5.347372055053711e+00 -7.256245613098145e+00 5 1 1
186 2 -7.909883022308350e+00 -5.243630409240723e+00 -7.354946136474609e+00 5 1 1
187 4 -7.488059043884277e+00 -4.934680938720703e+00 -7.478449821472168e+00 5 1 1
188 1 -7.209457397460938e+00 -4.476124763488770e+00 -7.506642818450928e+00 5 1 1
189 3 -7.066884040832520e+00 -3.980502128601074e+00 -7.355834007263184e+00 5 1 1
190 2 -7.001555919647217e+00 -3.574514865875244e+00 -7.010076045989990e+00 5 1 1
191 1 -6.925234794616699e+00 -3.350547790527344e+00 -6.527657508850098e+00 5 1 1
192 2 -6.753830432891846e+00 -3.332115173339844e+00 -6.018785476684570e+00 5 1 1
193 1 -6.439539432525635e+00 -3.464450120925903e+00 -5.603590488433838e+00 5 1 1
194 3 -5.988681316375732e+00 -3.635662078857422e+00 -5.366725444793701e+00 5 1 1
195 4 -5.459540843963623e+00 -3.718978881835938e+00 -5.325128078460693e+00 5 1 1
196 2 -4.940069675445557e+00 -3.621008157730103e+00 -5.421419143676758e+00 5 1 1
197 1 -4.514664173126221e+00 -3.317316293716431e+00 -5.545887947082520e+00 5 1 1
198 1 -4.231865406036377e+00 -2.861591815948486e+00 -5.578110694885254e+00 5 1 1
199 2 -4.086175918579102e+00 -2.365307569503784e+00 -5.432859897613525e+00 5 1 1
200 4 -4.019802093505859e+00 -1.955234527587891e+00 -5.092075347900391e+00 5 1 1
201 2 -3.945012092590332e+00 -1.725513577461243e+00 -4.612110614776611e+00 5 1 1
202 1 -3.777182579040527e+00 -1.701727628707886e+00 -4.102267265319824e+00 5 1 1
203 3 -3.467074871063232e+00 -1.831274390220642e+00 -3.683088064193726e+00 5 1 1
204 3 -3.019368886947632e+00 -2.003125905990601e+00 -3.440685749053955e+00 5 1 1
205 4 -2.491258144378662e+00 -2.090408325195312e+00 -3.394056797027588e+00 5 1 1
206 2 -1.970300674438477e+00 -1.998195290565491e+00 -3.487811326980591e+00 5 1 1
207 3 -1.541420221328735e+00 -1.699889302253723e+00 -3.613166809082031e+00 5 1 1
208 4 -1.254470229148865e+00 -1.247064471244812e+00 -3.649437665939331e+00 5 1 1
209 1 -1.105492115020752e+00 -7.501060366630554e-01 -3.509738683700562e+00 5 1 1
210 2 -1.038082361221313e+00 -3.361245691776276e-01 -3.173924922943115e+00 5 1 1
211 2 -9.647400379180908e-01 -1.006468236446381e-01 -2.696568012237549e+00 5 1 1
212 3 -2.281722873449326e-01  1.900122165679932e+00 -2.046032905578613e+00 5 1 1
213 4 -5.463954210281372e-01  2.311274766921997e+00 -2.181489467620850e+00 5 1 1
214 1 -7.196732163429260e-01  2.819766998291016e+00 -2.170396327972412e+00 5 1 1
215 2 -6.727442741394043e-01  3.350981473922729e+00 -2.105072736740112e+00 5 1 1
216 3 -4.140073359012604e-01  3.821800708770752e+00 -2.098448991775513e+00 5 1 1
217 2 -3.231064230203629e-02  4.172028064727783e+00 -2.241104364395142e+00 5 1 1
218 4  3.367923200130463e-01  4.387192249298096e+00 -2.566971540451050e+00 5 1 1
219 2  5.623923540115356e-01  4.504158020019531e+00 -3.040339231491089e+00 5 1 1
220 2  5.682891607284546e-01  4.597267150878906e+00 -3.569471836090088e+00 5 1 1
221 2  3.616754412651062e-01  4.749696254730225e+00 -4.041469097137451e+00 5 1 1
222 1  3.043433651328087e-02  5.022113800048828e+00 -4.365030765533447e+00 5 1 1
223 3 -2.901149690151215e-01  5.429859161376953e+00 -4.505455493927002e+00 5 1 1
224 3 -4.688415229320526e-01  5.936454296112061e+00 -4.497408390045166e+00 5 1 1
225 4 -4.283467531204224e-01  6.468226909637451e+00 -4.432077407836914e+00 5 1 1
226 4 -1.746003776788712e-01  6.941718101501465e+00 -4.422368526458740e+00 5 1 1
227 1  2.053971141576767e-01  7.295722484588623e+00 -4.560080051422119e+00 5 1 1
228 4  5.767362117767334e-01  7.514348983764648e+00 -4.880955219268799e+00 5 1 1
229 3  8.077336549758911e-01  7.633224487304688e+00 -5.351308345794678e+00 5 1 1
230 3  8.201110363006592e-01  7.725827217102051e+00 -5.880403995513916e+00 5 1 1
231 2  6.185067892074585e-01  7.875564575195312e+00 -6.355413913726807e+00 5 1 1
232 3  9.956746101379395e+00 -5.537766456604004e+00 -5.206343650817871e+00 6 1 1
233 2  9.796210289001465e+00 -5.147136211395264e+00 -4.874162673950195e+00 6 1 1
234 4  9.556986808776855e+00 -4.684178829193115e+00 -4.743330478668213e+00 6 1 1
235 1  9.202910423278809e+00 -4.283903121948242e+00 -4.799203872680664e+00 6 1 1
236 3  8.741650581359863e+00 -4.057543754577637e+00 -4.956171035766602e+00 6 1 1
237 2  8.221377372741699e+00 -4.050131320953369e+00 -5.090272903442383e+00 6 1 1
238 1  7.712909221649170e+00 -4.223678588867188e+00 -5.086212158203125e+00 6 1 1
239 2  7.282417774200439e+00 -4.471330642700195e+00 -4.881147384643555e+00 6 1 1
240 3  6.966578006744385e+00 -4.658160686492920e+00 -4.488715171813965e+00 6 1 1
241 2  6.758345603942871e+00 -4.672254085540771e+00 -3.993575572967529e+00 6 1 1
242 2  6.609955787658691e+00 -4.467426300048828e+00 -3.519574165344238e+00 6 1 1
243 3  6.450810909271240e+00 -4.080536842346191e+00 -3.182379007339478e+00 6 1 1
244 2  6.214453220367432e+00 -3.617760181427002e+00 -3.045774698257446e+00 6 1 1
245 3  5.863707542419434e+00 -3.214043140411377e+00 -3.097299575805664e+00 6 1 1
246 3  5.404889106750488e+00 -2.981838703155518e+00 -3.253003358840942e+00 6 1 1
247 2  4.885344028472900e+00 -2.968478202819824e+00 -3.389469623565674e+00 6 1 1
248 3  4.375609874725342e+00 -3.138195276260376e+00 -3.390443801879883e+00 6 1 1
249 4  3.942273139953613e+00 -3.385602235794067e+00 -3.191199302673340e+00 6 1 1
250 4  3.623061656951904e+00 -3.575833559036255e+00 -2.803129673004150e+00 6 1 1
251 3  3.412338256835938e+00 -3.595782279968262e+00 -2.309237003326416e+00 6 1 1
252 1  3.263186454772949e+00 -3.396903514862061e+00 -1.832950115203857e+00 6 1 1
253 2  3.105310916900635e+00 -3.013913393020630e+00 -1.490734815597534e+00 6 1 1
254 4  2.871816635131836e+00 -2.551470041275024e+00 -1.348334193229675e+00 6 1 1
255 1  2.524355649948120e+00 -2.144322395324707e+00 -1.395491957664490e+00 6 1 1
256 2  2.068089723587036e+00 -1.906346797943115e+00 -1.549898028373718e+00 6 1 1
257 3  1.549376130104065e+00 -1.886989474296570e+00 -1.688635587692261e+00 6 1 1
258 2  1.038335442543030e+00 -2.052794456481934e+00 -1.694543838500977e+00 6 1 1
259 3 -4.854824841022491e-01 -1.186730623245239e+00 -2.521049022674561e+00 6 1 1
260 3 -1.007163524627686e+00 -1.276099562644958e+00 -2.428566217422485e+00 6 1 1
261 4 -1.534729123115540e+00 -1.186864137649536e+00 -2.477713346481323e+00 6 1 1
262 1 -1.980744242668152e+00 -1.014672160148621e+00 -2.722874164581299e+00 6 1 1
263 2 -2.288775444030762e+00 -8.866632580757141e-01 -3.144043207168579e+00 6 1 1
264 3 -2.454869508743286e+00 -9.130991101264954e-01 -3.654362440109253e+00 6 1 1
265 1 -2.528948068618774e+00 -1.145626544952393e+00 -4.133009433746338e+00 6 1 1
266 2 -2.595858097076416e+00 -1.557696223258972e+00 -4.471321582794189e+00 6 1 1
267 2 -2.743150234222412e+00 -2.054310083389282e+00 -4.613789558410645e+00 6 1 1
268 4 -3.028017282485962e+00 -2.508603096008301e+00 -4.579568862915039e+00 6 1 1
269 3 -3.455209732055664e+00 -2.809626340866089e+00 -4.454555511474609e+00 6 1 1
270 1 -3.975400924682617e+00 -2.904691696166992e+00 -4.359591484069824e+00 6 1 1
271 3 -4.503997325897217e+00 -2.819422721862793e+00 -4.403712272644043e+00 6 1 1
272 4 -4.953308105468750e+00 -2.647871732711792e+00 -4.643278598785400e+00 6 1 1
273 4 -5.265525341033936e+00 -2.516905307769775e+00 -5.060542583465576e+00 6 1 1
274 3 -5.435101509094238e+00 -2.538033962249756e+00 -5.569920063018799e+00 6 1 1
275 1 -5.510700225830078e+00 -2.764839887619019e+00 -6.051070690155029e+00 6 1 1
276 2 -5.576512336730957e+00 -3.172883749008179e+00 -6.394365310668945e+00 6 1 1
277 4 -5.720675945281982e+00 -3.668884038925171e+00 -6.542439460754395e+00 6 1 1
278 3 -6.001362323760986e+00 -4.126035213470459e+00 -6.512138843536377e+00 6 1 1

# Atom-ID, translational, rotational velocity
Velocities

1  0.000000000000000e+00  0.000000000000000e+00  0.000000000000000e+00  0.000000000000000e+00  0.000000000000000e+00  0.000000000000000e+00
2  0.000000000000000e+00  0.000000000000000e+00  0.000000000000000e+00  0.000000000000000e+00  0.000000000000000e+00  0.000000000000000e+00
3  0.000000000000000e+00  0.000000000000000e+00  0.000000000000000e+00  0.000000000000000e+00  0.000000000000000e+00  0.000000000000000e+00
4  0.000000000000000e+00  0.000000000000000e+00  0.000000000000000e+00  0.000000000000000e+00  0.000000000000000e+00  0.000000000000000e+00
5  0.000000000000000e+00  0.000000000000000e+00  0.000000000000000e+00  0.000000000000000e+00  0.000000000000000e+00  0.000000000000000e+00
6  0.000000000000000e+00  0.000000000000000e+00  0.000000000000000e+00  0.000000000000000e+00  0.000000000000000e+00  0.000000000000000e+00
7  0.000000000000000e+00  0.000000000000000e+00  0.000000000000000e+00  0.000000000000000e+00  0.000000000000000e+00  0.000000000000000e+00
8  0.000000000000000e+00  0.000000000000000e+00  0.000000000000000e+00  0.000000000000000e+00  0.000000000000000e+00  0.000000000000000e+00
9  0.000000000000000e+00  0.000000000000000e+00  0.000000000000000e+00  0.000000000000000e+00  0.000000000000000e+00  0.000000000000000e+00
10  0.000000000000000e+00  0.000000000000000e+00  0.000000000000000e+00  0.000000000000000e+00  0.000000000000000e+00  0.000000000000000e+00
11  0.000000000000000e+00  0.000000000000000e+00  0.000000000000000e+00  0.000000000000000e+00  0.000000000000000e+00  0.000000000000000e+00
12  0.000000000000000e+00  0.000000000000000e+00  0.000000000000000e+00  0.000000000000000e+00  0.000000000000000e+00  0.000000000000000e+00
13  0.000000000000000e+00  0.000000000000000e+00  0.000000000000000e+00  0.000000000000000e+00  0.000000000000000e+00  0.000000000000000e+00
14  0.000000000000000e+00  0.000000000000000e+00  0.000000000000000e+00  0.000000000000000e+00  0.000000000000000e+00  0.000000000000000e+00
15  0.000000000000000e+00  0.000000000000000e+00  0.000000000000000e+00  0.000000000000000e+00  0.000000000000000e+00  0.000000000000000e+00
16  0.000000000000000e+00  0.000000000000000e+00  0.000000000000000e+00  0.000000000000000e+00  0.000000000000000e+00  0.000000000000000e+00
17  0.000000000000000e+00  0.000000000000000e+00  0.000000000000000e+00  0.000000000000000e+00  0.000000000000000e+00  0.000000000000000e+00
18  0.000000000000000e+00  0.000000000000000e+00  0.000000000000000e+00  0.000000000000000e+00  0.000000000000000e+00  0.000000000000000e+00
19  0.000000000000000e+00  0.000000000000000e+00  0.000000000000000e+00  0.000000000000000e+00  0.000000000000000e+00  0.000000000000000e+00
20  0.000000000000000e+00  0.000000000000000e+00  0.000000000000000e+00  0.000000000000000e+00  0.000000000000000e+00  0.000000000000000e+00
21  0.000000000000000e+00  0.000000000000000e+00  0.000000000000000e+00  0.000000000000000e+00  0.000000000000000e+00  0.000000000000000e+00
22  0.000000000000000e+00  0.000000000000000e+00  0.000000000000000e+00  0.000000000000000e+00  0.000000000000000e+00  0.000000000000000e+00
23  0.000000000000000e+00  0.000000000000000e+00  0.000000000000000e+00  0.000000000000000e+00  0.000000000000000e+00  0.000000000000000e+00
24  0.000000000000000e+00  0.000000000000000e+00  0.000000000000000e+00  0.000000000000000e+00  0.000000000000000e+00  0.000000000000000e+00
25  0.000000000000000e+00  0.000000000000000e+00  0.000000000000000e+00  0.000000000000000e+00  0.000000000000000e+00  0.000000000000000e+00
26  0.000000000000000e+00  0.000000000000000e+00  0.000000000000000e+00  0.000000000000000e+00  0.000000000000000e+00  0.000000000000000e+00
27  0.000000000000000e+00  0.000000000000000e+00  0.000000000000000e+00  0.000000000000000e+00  0.000000000000000e+00  0.000000000000000e+00
28  0.000000000000000e+00  0.000000000000000e+00  0.000000000000000e+00  0.000000000000000e+00  0.000000000000000e+00  0.000000000000000e+00
29  0.000000000000000e+00  0.000000000000000e+00  0.000000000000000e+00  0.000000000000000e+00  0.000000000000000e+00  0.000000000000000e+00
30  0.000000000000000e+00  0.000000000000000e+00  0.000000000000000e+00  0.000000000000000e+00  0.000000000000000e+00  0.000000000000000e+00
31  0.000000000000000e+00  0.000000000000000e+00  0.000000000000000e+00  0.000000000000000e+00  0.000000000000000e+00  0.000000000000000e+00
32  0.000000000000000e+00  0.000000000000000e+00  0.000000000000000e+00  0.000000000000000e+00  0.000000000000000e+00  0.000000000000000e+00
33  0.000000000000000e+00  0.000000000000000e+00  0.000000000000000e+00  0.000000000000000e+00  0.000000000000000e+00  0.000000000000000e+00
34  0.000000000000000e+00  0.000000000000000e+00  0.000000000000000e+00  0.000000000000000e+00  0.000000000000000e+00  0.000000000000000e+00
35  0.000000000000000e+00  0.000000000000000e+00  0.000000000000000e+00  0.000000000000000e+00  0.000000000000000e+00  0.000000000000000e+00
36  0.000000000000000e+00  0.000000000000000e+00  0.000000000000000e+00  0.000000000000000e+00  0.000000000000000e+00  0.000000000000000e+00
37  0.000000000000000e+00  0.000000000000000e+00  0.000000000000000e+00  0.000000000000000e+00  0.000000000000000e+00  0.000000000000000e+00
38  0.000000000000000e+00  0.000000000000000e+00  0.000000000000000e+00  0.000000000000000e+00  0.000000000000000e+00  0.000000000000000e+00
39  0.000000000000000e+00  0.000000000000000e+00  0.000000000000000e+00  0.000000000000000e+00  0.000000000000000e+00  0.000000000000000e+00
40  0.000000000000000e+00  0.000000000000000e+00  0.000000000000000e+00  0.000000000000000e+00  0.000000000000000e+00  0.000000000000000e+00
41  0.000000000000000e+00  0.000000000000000e+00  0.000000000000000e+00  0.000000000000000e+00  0.000000000000000e+00  0.000000000000000e+00
42  0.000000000000000e+00  0.000000000000000e+00  0.000000000000000e+00  0.000000000000000e+00  0.000000000000000e+00  0.000000000000000e+00
43  0.000000000000000e+00  0.000000000000000e+00  0.000000000000000e+00  0.000000000000000e+00  0.000000000000000e+00  0.000000000000000e+00
44  0.000000000000000e+00  0.000000000000000e+00  0.000000000000000e+00  0.000000000000000e+00  0.000000000000000e+00  0.000000000000000e+00
45  0.000000000000000e+00  0.000000000000000e+00  0.000000000000000e+00  0.000000000000000e+00  0.000000000000000e+00  0.000000000000000e+00
46  0.000000000000000e+00  0.000000000000000e+00  0.000000000000000e+00  0.000000000000000e+00  0.000000000000000e+00  0.000000000000000e+00
47  0.000000000000000e+00  0.000000000000000e+00  0.000000000000000e+00  0.000000000000000e+00  0.000000000000000e+00  0.000000000000000e+00
48  0.000000000000000e+00  0.000000000000000e+00  0.000000000000000e+00  0.000000000000000e+00  0.000000000000000e+00  0.000000000000000e+00
49  0.000000000000000e+00  0.000000000000000e+00  0.000000000000000e+00  0.000000000000000e+00  0.000000000000000e+00  0.000000000000000e+00
50  0.000000000000000e+00  0.000000000000000e+00  0.000000000000000e+00  0.000000000000000e+00  0.000000000000000e+00  0.000000000000000e+00
51  0.000000000000000e+00  0.000000000000000e+00  0.000000000000000e+00  0.000000000000000e+00  0.000000000000000e+00  0.000000000000000e+00