# LAMMPS data file
278 atoms
278 ellipsoids
272 bonds

4 atom types
1 bond types

# System size
0.000000 40.000000 xlo xhi
0.000000 40.000000 ylo yhi
0.000000 40.000000 zlo zhi

Masses

1 3.1575
2 3.1575
3 3.1575
4 3.1575

# Atom-ID, type, position, molecule-ID, ellipsoid flag, density
Atoms

1 3 -6.473512649536133e+00  4.944320201873779e+00  8.806588172912598e+00 1 1 1
2 2 -6.565784454345703e+00  4.571790695190430e+00  8.430580139160156e+00 1 1 1
3 4 -6.658732891082764e+00  4.391993522644043e+00  7.932865619659424e+00 1 1 1
4 1 -6.638705253601074e+00  4.406318187713623e+00  7.396129608154297e+00 1 1 1
5 3 -6.435064792633057e+00  4.542405605316162e+00  6.917900085449219e+00 1 1 1
6 2 -6.046892166137695e+00  4.681603908538818e+00  6.573458671569824e+00 1 1 1
7 1 -5.543400764465332e+00  4.704115867614746e+00  6.387278079986572e+00 1 1 1
8 2 -5.037578105926514e+00  4.534451484680176e+00  6.323678970336914e+00 1 1 1
9 2 -4.643353462219238e+00  4.170159816741943e+00  6.300431728363037e+00 1 1 1
10 4 -4.432214736938477e+00  3.682682991027832e+00  6.219958782196045e+00 1 1 1
11 1 -4.406039714813232e+00  3.190327167510986e+00  6.006434917449951e+00 1 1 1
12 2 -4.496614456176758e+00  2.813193559646606e+00  5.634601593017578e+00 1 1 1
13 2 -4.591173171997070e+00  2.627643823623657e+00  5.139323234558105e+00 1 1 1
14 2 -4.575512409210205e+00  2.637248992919922e+00  4.602341651916504e+00 1 1 1
15 3 -4.377403736114502e+00  2.771407604217529e+00  4.121290206909180e+00 1 1 1
16 4 -3.993718624114990e+00  2.912266492843628e+00  3.772509813308716e+00 1 1 1
17 1 -3.492031574249268e+00  2.939325571060181e+00  3.582128763198853e+00 1 1 1
18 2 -2.984601020812988e+00  2.775433301925659e+00  3.516058206558228e+00 1 1 1
19 3 -2.586020231246948e+00  2.415896177291870e+00  3.493030786514282e+00 1 1 1
20 1 -2.369362592697144e+00  1.930384635925293e+00  3.415360212326050e+00 1 1 1
21 3 -2.338665008544922e+00  1.436446070671082e+00  3.206190347671509e+00 1 1 1
22 1 -2.427374601364136e+00  1.054782032966614e+00  2.838576555252075e+00 1 1 1
23 1 -2.523472070693970e+00  8.634717464447021e-01  2.345763206481934e+00 1 1 1
24 3 -2.512216806411743e+00  8.682769536972046e-01  1.808619976043701e+00 1 1 1
25 3 -2.319493293762207e+00  1.000461101531982e+00  1.324783325195312e+00 1 1 1
26 3 -1.940370678901672e+00  1.142834067344666e+00  9.716850519180298e-01 1 1 1
27 2 -1.440551996231079e+00  1.174418449401855e+00  7.770815491676331e-01 1 1 1
28 1 -8.621746897697449e-01 -4.259166240692139e+00  3.545111417770386e-01 1 1 1
29 1 -7.622413635253906e-01 -4.786326408386230e+00  3.263680636882782e-01 1 1 1
30 1 -5.114183425903320e-01 -5.243932247161865e+00  4.542793333530426e-01 1 1 1
31 4 -2.348556220531464e-01 -5.577671051025391e+00  7.718080878257751e-01 1 1 1
32 1 -6.752495467662811e-02 -5.780256748199463e+00  1.240466952323914e+00 1 1 1
33 3 -1.027847453951836e-01 -5.894309520721436e+00  1.764320850372314e+00 1 1 1
34 4 -3.571970164775848e-01 -5.995944976806641e+00  2.226534843444824e+00 1 1 1
35 3 -7.639174461364746e-01 -6.166136741638184e+00  2.533616304397583e+00 1 1 1
36 3 -1.198304653167725e+00 -6.459738731384277e+00  2.651059150695801e+00 1 1 1
37 3 -1.525143146514893e+00 -6.884789466857910e+00  2.616364717483521e+00 1 1 1
38 2 -1.650218844413757e+00 -7.399238586425781e+00  2.524896621704102e+00 1 1 1
39 3 -1.555821418762207e+00 -7.927231311798096e+00  2.493522882461548e+00 1 1 1
40 3 -1.307659745216370e+00 -8.387689590454102e+00  2.616302251815796e+00 1 1 1
41 4 -1.029914855957031e+00 -8.725204467773438e+00  2.928743839263916e+00 1 1 1
42 1 -8.579187393188477e-01 -8.931118965148926e+00  3.394270181655884e+00 1 1 1
43 4 -8.869792819023132e-01 -9.046645164489746e+00  3.918203830718994e+00 1 1 1
44 2 -1.135834932327271e+00 -9.147514343261719e+00  4.383598327636719e+00 1 1 1
45 1 -1.539790987968445e+00 -9.314899444580078e+00  4.695784568786621e+00 1 1 1
46 4 -1.975326776504517e+00 -9.604693412780762e+00  4.818336963653564e+00 1 1 1
47 2 -2.306746721267700e+00 -1.002643299102783e+01  4.786799430847168e+00 1 1 1
48 3  8.126592636108398e+00  1.099340248107910e+01 -1.983523666858673e-01 2 1 1
49 2  7.978274822235107e+00  1.066268348693848e+01 -5.949739217758179e-01 2 1 1
50 4  7.929571151733398e+00  1.018927383422852e+01 -8.443631529808044e-01 2 1 1
51 1  7.891071796417236e+00  9.654171943664551e+00 -8.745265603065491e-01 2 1 1
52 3  7.769508838653564e+00  9.161928176879883e+00 -6.967819333076477e-01 2 1 1
53 2  7.503165245056152e+00  8.800695419311523e+00 -4.014110565185547e-01 2 1 1
54 1  7.085313796997070e+00  8.608863830566406e+00 -1.234036609530449e-01 2 1 1
55 3  6.566800594329834e+00  8.560533523559570e+00  8.861512877047062e-03 2 1 1
56 2  6.036713123321533e+00  8.575234413146973e+00 -7.762628048658371e-02 2 1 1
57 1  5.588550090789795e+00  8.548559188842773e+00 -3.727813363075256e-01 2 1 1
58 4  5.284649848937988e+00  8.391825675964355e+00 -7.872264981269836e-01 2 1 1
59 1  5.132576465606689e+00  8.065744400024414e+00 -1.186278581619263e+00 2 1 1
60 3  5.082202434539795e+00  7.595417976379395e+00 -1.441081285476685e+00 2 1 1
61 4  5.044748783111572e+00  7.060670375823975e+00 -1.477618098258972e+00 2 1 1
62 3  4.926555156707764e+00  6.565864562988281e+00 -1.304743170738220e+00 2 1 1
63 3  4.664617538452148e+00  6.200153827667236e+00 -1.010922074317932e+00 2 1 1
64 4  4.250535964965820e+00  6.003675460815430e+00 -7.305414080619812e-01 2 1 1
65 2  3.733725547790527e+00  5.952240467071533e+00 -5.928801894187927e-01 2 1 1
66 2  3.202636480331421e+00  5.966573238372803e+00 -6.730105876922607e-01 2 1 1
67 3  2.751120805740356e+00  5.942411899566650e+00 -9.632467031478882e-01 2 1 1
68 4  2.442823648452759e+00  5.790110111236572e+00 -1.376086473464966e+00 2 1 1
69 2  2.286957025527954e+00  5.468726158142090e+00 -1.777464151382446e+00 2 1 1
70 1  2.234843254089355e+00  5.001514434814453e+00 -2.037633657455444e+00 2 1 1
71 1  2.198366165161133e+00  4.467174053192139e+00 -2.080528259277344e+00 2 1 1
72 2  2.083492755889893e+00  3.969890117645264e+00 -1.912607192993164e+00 2 1 1
73 4  1.825952291488647e+00  3.599764108657837e+00 -1.620439529418945e+00 2 1 1
74 2 -1.305075407028198e+00  5.595140457153320e-01  1.806013941764832e+00 2 1 1
75 2 -1.337996482849121e+00  1.054231643676758e+00  2.013034105300903e+00 2 1 1
76 2 -1.557372689247131e+00  1.538726329803467e+00  2.089321851730347e+00 2 1 1
77 4 -1.958155155181885e+00  1.895866632461548e+00  2.112279891967773e+00 2 1 1
78 4 -2.466299533843994e+00  2.056891679763794e+00  2.179594755172729e+00 2 1 1
79 2 -2.967047691345215e+00  2.027563571929932e+00  2.372088193893433e+00 2 1 1
80 4 -3.348452091217041e+00  1.885943293571472e+00  2.723021745681763e+00 2 1 1
81 2 -3.543893098831177e+00  1.752751350402832e+00  3.205477714538574e+00 2 1 1
82 3 -3.557345628738403e+00  1.745531201362610e+00  3.742543458938599e+00 2 1 1
83 4 -3.462023258209229e+00  1.933975458145142e+00  4.236604213714600e+00 2 1 1
84 1 -3.372381448745728e+00  2.313366651535034e+00  4.606339454650879e+00 2 1 1
85 2 -3.400729179382324e+00  2.806546688079834e+00  4.817672252655029e+00 2 1 1
86 3 -3.614658117294312e+00  3.293036460876465e+00  4.896721363067627e+00 2 1 1
87 3 -4.011096477508545e+00  3.654958486557007e+00  4.919859886169434e+00 2 1 1
88 3 -4.517693519592285e+00  3.821743726730347e+00  4.984683036804199e+00 2 1 1
89 4 -5.020308971405029e+00  3.796938180923462e+00  5.172958374023438e+00 2 1 1
90 1 -5.406233310699463e+00  3.656904220581055e+00  5.519575595855713e+00 2 1 1
91 3 -5.607140541076660e+00  3.521766901016235e+00  5.999234199523926e+00 2 1 1
92 3 -5.624946117401123e+00  3.509807109832764e+00  6.536109447479248e+00 2 1 1
93 3 -4.610378742218018e+00  1.000275993347168e+01 -1.306454849243164e+01 3 1 1
94 2 -4.244342803955078e+00  9.609891891479492e+00 -1.304571056365967e+01 3 1 1
95 4 -3.780320882797241e+00  9.380443572998047e+00 -1.290174484252930e+01 3 1 1
96 1 -3.351020812988281e+00  9.300031661987305e+00 -1.258882713317871e+01 3 1 1
97 3 -3.075955867767334e+00  9.297600746154785e+00 -1.212728118896484e+01 3 1 1
98 2 -3.016043901443481e+00  9.272542953491211e+00 -1.159392261505127e+01 3 1 1
99 1 -3.150468111038208e+00  9.132791519165039e+00 -1.109284877777100e+01 3 1 1
100 3 -3.384562730789185e+00  8.829850196838379e+00 -1.071586418151855e+01 3 1 1
101 2 -3.585824489593506e+00  8.377280235290527e+00 -1.050764560699463e+01 3 1 1
102 2 -3.634194374084473e+00  7.845407962799072e+00 -1.044878673553467e+01 3 1 1
103 1 -3.467721223831177e+00  7.334761142730713e+00 -1.046306705474854e+01 3 1 1
104 4 -3.106062889099121e+00  6.937756061553955e+00 -1.044654750823975e+01 3 1 1
105 1 -2.643038988113403e+00  6.703655719757080e+00 -1.030695819854736e+01 3 1 1
106 1 -2.210973978042603e+00  6.619820117950439e+00 -9.998764038085938e+00 3 1 1
107 2 -1.930437326431274e+00  6.616545677185059e+00 -9.540543556213379e+00 3 1 1
108 2 -1.864423632621765e+00  6.593484878540039e+00 -9.007806777954102e+00 3 1 1
109 4 -1.994430541992188e+00  6.457843303680420e+00 -8.504434585571289e+00 3 1 1
110 3 -2.227480173110962e+00  6.159571647644043e+00 -8.123109817504883e+00 3 1 1
111 3 -2.431455135345459e+00  5.710437297821045e+00 -7.910170555114746e+00 3 1 1
112 3 -2.485273122787476e+00  5.179470062255859e+00 -7.847942352294922e+00 3 1 1
113 1 -2.324910163879395e+00  4.666853427886963e+00 -7.861570835113525e+00 3 1 1
114 3 -1.967701435089111e+00  4.265741825103760e+00 -7.847301483154297e+00 3 1 1
115 2 -1.505778193473816e+00  4.026972770690918e+00 -7.712013244628906e+00 3 1 1
116 3 -1.071048259735107e+00  3.939682245254517e+00 -7.408575057983398e+00 3 1 1
117 4 -7.850885987281799e-01  3.935455322265625e+00 -6.953721046447754e+00 3 1 1
118 1 -7.129594683647156e-01  3.914336442947388e+00 -6.421710968017578e+00 3 1 1
119 1  1.021958827972412e+00  4.489203453063965e+00 -1.670510530471802e+00 3 1 1
120 3  1.332454919815063e+00  4.639297008514404e+00 -1.258505702018738e+00 3 1 1
121 4  1.785620808601379e+00  4.662225246429443e+00 -9.707546830177307e-01 3 1 1
122 4  2.317188978195190e+00  4.648110389709473e+00 -8.938158154487610e-01 3 1 1
123 3  2.833110570907593e+00  4.701119899749756e+00 -1.034150600433350e+00 3 1 1
124 1  3.245297431945801e+00  4.899940490722656e+00 -1.315679311752319e+00 3 1 1
125 2  3.505038976669312e+00  5.267868041992188e+00 -1.608693122863770e+00 3 1 1
126 3  3.621562480926514e+00  5.763912200927734e+00 -1.779091954231262e+00 3 1 1
127 3  3.658520460128784e+00  6.298464298248291e+00 -1.739379048347473e+00 3 1 1
128 1  3.709750890731812e+00  6.767245292663574e+00 -1.481880664825439e+00 3 1 1
129 2  3.863716125488281e+00  7.090975284576416e+00 -1.081659913063049e+00 3 1 1
130 2  4.169815540313721e+00  7.245484828948975e+00 -6.679959893226624e-01 3 1 1
131 1  4.619670391082764e+00  7.270918369293213e+00 -3.752968907356262e-01 3 1 1
132 2  5.150262832641602e+00  7.256384372711182e+00 -2.919839322566986e-01 3 1 1
133 4  5.667938232421875e+00  7.306275367736816e+00 -4.269567430019379e-01 3 1 1
134 1  6.083909034729004e+00  7.500422000885010e+00 -7.061682343482971e-01 3 1 1
135 4  6.348047256469727e+00  7.863887310028076e+00 -1.000777006149292e+00 3 1 1
136 3  6.467926025390625e+00  8.357416152954102e+00 -1.176081776618958e+00 3 1 1
137 2  6.505884647369385e+00  8.892339706420898e+00 -1.142745137214661e+00 3 1 1
138 3 -2.745923519134521e+00 -1.263849544525146e+01  5.744486808776855e+00 4 1 1
139 2 -2.831931591033936e+00 -1.210936641693115e+01  5.780555248260498e+00 4 1 1
140 4 -2.697465419769287e+00 -1.159728431701660e+01  5.871991634368896e+00 4 1 1
141 1 -2.363815546035767e+00 -1.117721462249756e+01  5.901932239532471e+00 4 1 1
142 3 -1.927737593650818e+00 -1.088931274414062e+01  5.776816844940186e+00 4 1 1
143 2 -1.525195360183716e+00 -1.072331809997559e+01  5.462090492248535e+00 4 1 1
144 1 -1.279141187667847e+00 -1.062284183502197e+01  4.995122909545898e+00 4 1 1
145 3 -1.253224492073059e+00 -1.050651454925537e+01  4.471210956573486e+00 4 1 1
146 1 -1.427476167678833e+00 -1.029895210266113e+01  4.007263183593750e+00 4 1 1
147 4 -1.705767750740051e+00 -9.959543228149414e+00  3.697373151779175e+00 4 1 1
148 3 -1.952522635459900e+00 -9.497692108154297e+00  3.577131509780884e+00 4 1 1
149 1 -2.044160366058350e+00 -8.969275474548340e+00  3.610099077224731e+00 4 1 1
150 4 -1.915969729423523e+00 -8.455592155456543e+00  3.701592922210693e+00 4 1 1
151 1 -1.586812257766724e+00 -8.032217979431152e+00  3.734718322753906e+00 4 1 1
152 2 -1.151865720748901e+00 -7.740497589111328e+00  3.614731073379517e+00 4 1 1
153 2 -7.465040683746338e-01 -7.571724414825439e+00  3.305079936981201e+00 4 1 1
154 3 -4.948540031909943e-01 -7.470496654510498e+00  2.841259479522705e+00 4 1 1
155 2 -4.627196490764618e-01 -7.355690479278564e+00  2.317371606826782e+00 4 1 1
156 2 -6.323477029800415e-01 -7.151484012603760e+00  1.850246906280518e+00 4 1 1
157 2 -9.095312952995300e-01 -6.815843105316162e+00  1.535269141197205e+00 4 1 1
158 1 -1.159048795700073e+00 -6.356790542602539e+00  1.409930586814880e+00 4 1 1
159 2 -1.256208777427673e+00 -5.829210758209229e+00  1.439694762229919e+00 4 1 1
160 4 -1.134307026863098e+00 -5.313975811004639e+00  1.531144261360168e+00 4 1 1
161 1 -8.097230792045593e-01 -4.887342929840088e+00  1.567356824874878e+00 4 1 1
162 4 -3.759538233280182e-01 -4.591834068298340e+00  1.452456831932068e+00 4 1 1
163 4  3.207882121205330e-02 -4.420180797576904e+00  1.147944927215576e+00 4 1 1
164 4  2.892193794250488e-01 -4.318079948425293e+00  6.873709559440613e-01 4 1 1
165 3  2.263422966003418e+00 -5.101673603057861e+00 -3.613311052322388e+00 4 1 1
166 2  2.442121028900146e+00 -5.327586650848389e+00 -4.066866397857666e+00 4 1 1
167 3  2.731550931930542e+00 -5.354252815246582e+00 -4.518756389617920e+00 4 1 1
168 4  3.145357370376587e+00 -5.239878177642822e+00 -4.841818332672119e+00 4 1 1
169 1  3.649921178817749e+00 -5.096215248107910e+00 -4.957833290100098e+00 4 1 1
170 3  4.177153110504150e+00 -5.046172618865967e+00 -4.867255210876465e+00 4 1 1
171 4  4.650354862213135e+00 -5.177086830139160e+00 -4.649016380310059e+00 4 1 1
172 2  5.013342857360840e+00 -5.507533073425293e+00 -4.430538177490234e+00 4 1 1
173 1  5.251814365386963e+00 -5.980291843414307e+00 -4.339365482330322e+00 4 1 1
174 1  5.398769855499268e+00 -6.484073162078857e+00 -4.454639434814453e+00 4 1 1
175 2  5.521977901458740e+00 -6.895799160003662e+00 -4.777097702026367e+00 4 1 1
176 3  5.698238372802734e+00 -7.127378463745117e+00 -5.228753089904785e+00 4 1 1
177 2  5.984182357788086e+00 -7.159138202667236e+00 -5.682530403137207e+00 4 1 1
178 2  6.394768714904785e+00 -7.047344207763672e+00 -6.010558605194092e+00 4 1 1
179 3  6.897623538970947e+00 -6.902776241302490e+00 -6.132729530334473e+00 4 1 1
180 2  7.425293445587158e+00 -6.848685741424561e+00 -6.047162055969238e+00 4 1 1
181 3  7.900911808013916e+00 -6.973943710327148e+00 -5.830868721008301e+00 4 1 1
182 3  8.267395019531250e+00 -7.299282550811768e+00 -5.610557079315186e+00 4 1 1
183 2  8.509094238281250e+00 -7.769410610198975e+00 -5.514443397521973e+00 4 1 1
184 3  8.657794952392578e+00 -8.274055480957031e+00 -5.623565196990967e+00 4 1 1
185 3 -7.439855098724365e+00 -7.429903984069824e+00 -1.312460136413574e+01 5 1 1
186 2 -6.978923797607422e+00 -7.515615940093994e+00 -1.286214542388916e+01 5 1 1
187 4 -6.452516555786133e+00 -7.462728977203369e+00 -1.276841545104980e+01 5 1 1
188 1 -5.975457191467285e+00 -7.216063499450684e+00 -1.278411865234375e+01 5 1 1
189 3 -5.643782615661621e+00 -6.794050216674805e+00 -1.280838584899902e+01 5 1 1
190 2 -5.498348236083984e+00 -6.281747817993164e+00 -1.273713588714600e+01 5 1 1
191 1 -5.509209156036377e+00 -5.798505783081055e+00 -1.250251865386963e+01 5 1 1
192 2 -5.587069511413574e+00 -5.452644824981689e+00 -1.209877395629883e+01 5 1 1
193 1 -5.617166996002197e+00 -5.300283432006836e+00 -1.158442020416260e+01 5 1 1
194 3 -5.502880096435547e+00 -5.324026584625244e+00 -1.105995464324951e+01 5 1 1
195 4 -5.202459335327148e+00 -5.439585208892822e+00 -1.062975120544434e+01 5 1 1
196 2 -4.744851589202881e+00 -5.527771949768066e+00 -1.036234855651855e+01 5 1 1
197 1 -4.218728542327881e+00 -5.479807853698730e+00 -1.026444721221924e+01 5 1 1
198 1 -3.738801479339600e+00 -5.238644599914551e+00 -1.027834987640381e+01 5 1 1
199 2 -3.402216672897339e+00 -4.820620536804199e+00 -1.030387687683105e+01 5 1 1
200 4 -3.251667737960815e+00 -4.309276103973389e+00 -1.023644638061523e+01 5 1 1
201 2 -3.259175300598145e+00 -3.823602199554443e+00 -1.000677299499512e+01 5 1 1
202 1 -3.336706399917603e+00 -3.472835779190063e+00 -9.607225418090820e+00 5 1 1
203 3 -3.369620561599731e+00 -3.314967155456543e+00 -9.094701766967773e+00 5 1 1
204 3 -3.260237455368042e+00 -3.334691524505615e+00 -8.569030761718750e+00 5 1 1
205 4 -2.964934587478638e+00 -3.449242830276489e+00 -8.135025024414062e+00 5 1 1
206 2 -2.510720014572144e+00 -3.539814710617065e+00 -7.862686157226562e+00 5 1 1
207 3 -1.984982848167419e+00 -3.496734380722046e+00 -7.760575771331787e+00 5 1 1
208 4 -1.502272605895996e+00 -3.261078119277954e+00 -7.772602081298828e+00 5 1 1
209 1 -1.160805702209473e+00 -2.847112178802490e+00 -7.799306869506836e+00 5 1 1
210 2 -1.005125045776367e+00 -2.336821317672729e+00 -7.735646247863770e+00 5 1 1
211 2 -1.009199261665344e+00 -1.848797678947449e+00 -7.510904312133789e+00 5 1 1
212 3 -1.398490786552429e+00  2.929784297943115e+00 -6.547633171081543e+00 5 1 1
213 4 -1.753445625305176e+00  3.332916975021362e+00 -6.560801506042480e+00 5 1 1
214 1 -1.910750150680542e+00  3.846501827239990e+00 -6.547554969787598e+00 5 1 1
215 2 -1.854224801063538e+00  4.376975059509277e+00 -6.611455917358398e+00 5 1 1
216 3 -1.648931145668030e+00  4.824387073516846e+00 -6.826784133911133e+00 5 1 1
217 2 -1.416443943977356e+00  5.120322227478027e+00 -7.210263729095459e+00 5 1 1
218 4 -1.288671255111694e+00  5.253926753997803e+00 -7.714762687683105e+00 5 1 1
219 2 -1.357742190361023e+00  5.275998592376709e+00 -8.247148513793945e+00 5 1 1
220 2 -1.640997767448425e+00  5.279749393463135e+00 -8.703698158264160e+00 5 1 1
221 2 -2.074402332305908e+00  5.365302085876465e+00 -9.009499549865723e+00 5 1 1
222 1 -2.536890268325806e+00  5.601736068725586e+00 -9.146931648254395e+00 5 1 1
223 3 -2.896336555480957e+00  6.000800609588623e+00 -9.162327766418457e+00 5 1 1
224 3 -3.059756040573120e+00  6.512443065643311e+00 -9.148362159729004e+00 5 1 1
225 4 -3.008655309677124e+00  7.043862342834473e+00 -9.208895683288574e+00 5 1 1
226 4 -2.806026697158813e+00  7.494737148284912e+00 -9.419476509094238e+00 5 1 1
227 1 -2.572436809539795e+00  7.795336246490479e+00 -9.798625946044922e+00 5 1 1
228 4 -2.440216541290283e+00  7.933036327362061e+00 -1.030086994171143e+01 5 1 1
229 3 -2.503176927566528e+00  7.957079887390137e+00 -1.083392047882080e+01 5 1 1
230 3 -2.780983448028564e+00  7.959917545318604e+00 -1.129380607604980e+01 5 1 1
231 2 -3.211675167083740e+00  8.042028427124023e+00 -1.160435771942139e+01 5 1 1
232 3  1.058260250091553e+01 -9.826789855957031e+00 -6.971574783325195e+00 6 1 1
233 2  1.040992259979248e+01 -9.586746215820312e+00 -6.522972583770752e+00 6 1 1
234 4  1.028729820251465e+01 -9.169020652770996e+00 -6.208095550537109e+00 6 1 1
235 1  1.013770294189453e+01 -8.663979530334473e+00 -6.102046012878418e+00 6 1 1
236 3  9.894378662109375e+00 -8.195195198059082e+00 -6.200602531433105e+00 6 1 1
237 2  9.526159286499023e+00 -7.872436046600342e+00 -6.421797275543213e+00 6 1 1
238 1  9.049348831176758e+00 -7.749990463256836e+00 -6.637069702148438e+00 6 1 1
239 2  8.521482467651367e+00 -7.806083202362061e+00 -6.720121860504150e+00 6 1 1
240 3  8.019505500793457e+00 -7.951066970825195e+00 -6.594861507415771e+00 6 1 1
241 2  7.610530853271484e+00 -8.061554908752441e+00 -6.264374256134033e+00 6 1 1
242 2  7.326336383819580e+00 -8.027226448059082e+00 -5.809691429138184e+00 6 1 1
243 3  7.151285648345947e+00 -7.792820930480957e+00 -5.359034061431885e+00 6 1 1
244 2  7.028277873992920e+00 -7.379075527191162e+00 -5.039085865020752e+00 6 1 1
245 3  6.880455970764160e+00 -6.874841690063477e+00 -4.926886558532715e+00 6 1 1
246 3  6.640371322631836e+00 -6.403388500213623e+00 -5.020538806915283e+00 6 1 1
247 2  6.275645256042480e+00 -6.075492382049561e+00 -5.239941120147705e+00 6 1 1
248 3  5.801232337951660e+00 -5.947412014007568e+00 -5.457220077514648e+00 6 1 1
249 4  5.273768901824951e+00 -5.999486923217773e+00 -5.545306682586670e+00 6 1 1
250 4  4.770054340362549e+00 -6.143613815307617e+00 -5.426209449768066e+00 6 1 1
251 3  4.357856273651123e+00 -6.256720066070557e+00 -5.100653648376465e+00 6 1 1
252 1  4.070170402526855e+00 -6.227504253387451e+00 -4.647811889648438e+00 6 1 1
253 2  3.892699003219604e+00 -5.998756885528564e+00 -4.195195674896240e+00 6 1 1
254 4  3.769261837005615e+00 -5.589058876037598e+00 -3.870237350463867e+00 6 1 1
255 1  3.623152256011963e+00 -5.085738182067871e+00 -3.751879930496216e+00 6 1 1
256 2  3.386283636093140e+00 -4.611701011657715e+00 -3.840566873550415e+00 6 1 1
257 3  3.025045394897461e+00 -4.278717994689941e+00 -4.058084487915039e+00 6 1 1
258 2  2.553070545196533e+00 -4.144970417022705e+00 -4.277267456054688e+00 6 1 1
259 3 -1.393638372421265e+00 -2.545794963836670e+00 -6.612902164459229e+00 6 1 1
260 3 -1.846125364303589e+00 -2.454058885574341e+00 -6.887711524963379e+00 6 1 1
261 4 -2.138858079910278e+00 -2.340052604675293e+00 -7.323597908020020e+00 6 1 1
262 1 -2.245806217193604e+00 -2.322362661361694e+00 -7.849841594696045e+00 6 1 1
263 2 -2.211507320404053e+00 -2.482991456985474e+00 -8.361413955688477e+00 6 1 1
264 3 -2.134182453155518e+00 -2.836189270019531e+00 -8.758852005004883e+00 6 1 1
265 1 -2.128384351730347e+00 -3.323045253753662e+00 -8.986059188842773e+00 6 1 1
266 2 -2.281494140625000e+00 -3.833874464035034e+00 -9.051607131958008e+00 6 1 1
267 2 -2.620520353317261e+00 -4.249877452850342e+00 -9.025468826293945e+00 6 1 1
268 4 -3.101850986480713e+00 -4.488287925720215e+00 -9.012507438659668e+00 6 1 1
269 3 -3.627792835235596e+00 -4.533804416656494e+00 -9.112501144409180e+00 6 1 1
270 1 -4.083713531494141e+00 -4.444414615631104e+00 -9.382376670837402e+00 6 1 1
271 3 -4.381575584411621e+00 -4.329351425170898e+00 -9.814481735229492e+00 6 1 1
272 4 -4.493405342102051e+00 -4.307606220245361e+00 -1.033955764770508e+01 6 1 1
273 4 -4.461892604827881e+00 -4.462719917297363e+00 -1.085301494598389e+01 6 1 1
274 3 -4.384185791015625e+00 -4.811038017272949e+00 -1.125465679168701e+01 6 1 1
275 1 -4.374996185302734e+00 -5.295505523681641e+00 -1.148681545257568e+01 6 1 1
276 2 -4.522985458374023e+00 -5.807338237762451e+00 -1.155614662170410e+01 6 1 1
277 4 -4.857110500335693e+00 -6.227366447448730e+00 -1.153123474121094e+01 6 1 1
278 3 -5.335622787475586e+00 -6.471286773681641e+00 -1.151641559600830e+01 6 1 1

# Atom-ID, translational, rotational velocity
Velocities

1  0.000000000000000e+00  0.000000000000000e+00  0.000000000000000e+00  0.000000000000000e+00  0.000000000000000e+00  0.000000000000000e+00
2  0.000000000000000e+00  0.000000000000000e+00  0.000000000000000e+00  0.000000000000000e+00  0.000000000000000e+00  0.000000000000000e+00
3  0.000000000000000e+00  0.000000000000000e+00  0.000000000000000e+00  0.000000000000000e+00  0.000000000000000e+00  0.000000000000000e+00
4  0.000000000000000e+00  0.000000000000000e+00  0.000000000000000e+00  0.000000000000000e+00  0.000000000000000e+00  0.000000000000000e+00
5  0.000000000000000e+00  0.000000000000000e+00  0.000000000000000e+00  0.000000000000000e+00  0.000000000000000e+00  0.000000000000000e+00
6  0.000000000000000e+00  0.000000000000000e+00  0.000000000000000e+00  0.000000000000000e+00  0.000000000000000e+00  0.000000000000000e+00
7  0.000000000000000e+00  0.000000000000000e+00  0.000000000000000e+00  0.000000000000000e+00  0.000000000000000e+00  0.000000000000000e+00
8  0.000000000000000e+00  0.000000000000000e+00  0.000000000000000e+00  0.000000000000000e+00  0.000000000000000e+00  0.000000000000000e+00
9  0.000000000000000e+00  0.000000000000000e+00  0.000000000000000e+00  0.000000000000000e+00  0.000000000000000e+00  0.000000000000000e+00
10  0.000000000000000e+00  0.000000000000000e+00  0.000000000000000e+00  0.000000000000000e+00  0.000000000000000e+00  0.000000000000000e+00
11  0.000000000000000e+00  0.000000000000000e+00  0.000000000000000e+00  0.000000000000000e+00  0.000000000000000e+00  0.000000000000000e+00
12  0.000000000000000e+00  0.000000000000000e+00  0.000000000000000e+00  0.000000000000000e+00  0.000000000000000e+00  0.000000000000000e+00
13  0.000000000000000e+00  0.000000000000000e+00  0.000000000000000e+00  0.000000000000000e+00  0.000000000000000e+00  0.000000000000000e+00
14  0.000000000000000e+00  0.000000000000000e+00  0.000000000000000e+00  0.000000000000000e+00  0.000000000000000e+00  0.000000000000000e+00
15  0.000000000000000e+00  0.000000000000000e+00  0.000000000000000e+00  0.000000000000000e+00  0.000000000000000e+00  0.000000000000000e+00
16  0.000000000000000e+00  0.000000000000000e+00  0.000000000000000e+00  0.000000000000000e+00  0.000000000000000e+00  0.000000000000000e+00
17  0.000000000000000e+00  0.000000000000000e+00  0.000000000000000e+00  0.000000000000000e+00  0.000000000000000e+00  0.000000000000000e+00
18  0.000000000000000e+00  0.000000000000000e+00  0.000000000000000e+00  0.000000000000000e+00  0.000000000000000e+00  0.000000000000000e+00
19  0.000000000000000e+00  0.000000000000000e+00  0.000000000000000e+00  0.000000000000000e+00  0.000000000000000e+00  0.000000000000000e+00
20  0.000000000000000e+00  0.000000000000000e+00  0.000000000000000e+00  0.000000000000000e+00  0.000000000000000e+00  0.000000000000000e+00
21  0.000000000000000e+00  0.000000000000000e+00  0.000000000000000e+00  0.000000000000000e+00  0.000000000000000e+00  0.000000000000000e+00
22  0.000000000000000e+00  0.000000000000000e+00  0.000000000000000e+00  0.000000000000000e+00  0.000000000000000e+00  0.000000000000000e+00
23  0.000000000000000e+00  0.000000000000000e+00  0.000000000000000e+00  0.000000000000000e+00  0.000000000000000e+00  0.000000000000000e+00
24  0.000000000000000e+00  0.000000000000000e+00  0.000000000000000e+00  0.000000000000000e+00  0.000000000000000e+00  0.000000000000000e+00
25  0.000000000000000e+00  0.000000000000000e+00  0.000000000000000e+00  0.000000000000000e+00  0.000000000000000e+00  0.000000000000000e+00
26  0.000000000000000e+00  0.000000000000000e+00  0.000000000000000e+00  0.000000000000000e+00  0.000000000000000e+00  0.000000000000000e+00
27  0.000000000000000e+00  0.000000000000000e+00  0.000000000000000e+00  0.000000000000000e+00  0.000000000000000e+00  0.000000000000000e+00
28  0.000000000000000e+00  0.000000000000000e+00  0.000000000000000e+00  0.000000000000000e+00  0.000000000000000e+00  0.000000000000000e+00
29  0.000000000000000e+00  0.000000000000000e+00  0.000000000000000e+00  0.000000000000000e+00  0.000000000000000e+00  0.000000000000000e+00
30  0.000000000000000e+00  0.000000000000000e+00  0.000000000000000e+00  0.000000000000000e+00  0.000000000000000e+00  0.000000000000000e+00
31  0.000000000000000e+00  0.000000000000000e+00  0.000000000000000e+00  0.000000000000000e+00  0.000000000000000e+00  0.000000000000000e+00
32  0.000000000000000e+00  0.000000000000000e+00  0.000000000000000e+00  0.000000000000000e+00  0.000000000000000e+00  0.000000000000000e+00
33  0.000000000000000e+00  0.000000000000000e+00  0.000000000000000e+00  0.000000000000000e+00  0.000000000000000e+00  0.000000000000000e+00
34  0.000000000000000e+00  0.000000000000000e+00  0.000000000000000e+00  0.000000000000000e+00  0.000000000000000e+00  0.000000000000000e+00
35  0.000000000000000e+00  0.000000000000000e+00  0.000000000000000e+00  0.000000000000000e+00  0.000000000000000e+00  0.000000000000000e+00
36  0.000000000000000e+00  0.000000000000000e+00  0.000000000000000e+00  0.000000000000000e+00  0.000000000000000e+00  0.000000000000000e+00
37  0.000000000000000e+00  0.000000000000000e+00  0.000000000000000e+00  0.000000000000000e+00  0.000000000000000e+00  0.000000000000000e+00
38  0.000000000000000e+00  0.000000000000000e+00  0.000000000000000e+00  0.000000000000000e+00  0.000000000000000e+00  0.000000000000000e+00
39  0.000000000000000e+00  0.000000000000000e+00  0.000000000000000e+00  0.000000000000000e+00  0.000000000000000e+00  0.000000000000000e+00
40  0.000000000000000e+00  0.000000000000000e+00  0.000000000000000e+00  0.000000000000000e+00  0.000000000000000e+00  0.000000000000000e+00
41  0.000000000000000e+00  0.000000000000000e+00  0.000000000000000e+00  0.000000000000000e+00  0.000000000000000e+00  0.000000000000000e+00
42  0.000000000000000e+00  0.000000000000000e+00  0.000000000000000e+00  0.000000000000000e+00  0.000000000000000e+00  0.000000000000000e+00
43  0.000000000000000e+00  0.000000000000000e+00  0.000000000000000e+00  0.000000000000000e+00  0.000000000000000e+00  0.000000000000000e+00
44  0.000000000000000e+00  0.000000000000000e+00  0.000000000000000e+00  0.000000000000000e+00  0.000000000000000e+00  0.000000000000000e+00
45  0.000000000000000e+00  0.000000000000000e+00  0.000000000000000e+00  0.000000000000000e+00  0.000000000000000e+00  0.000000000000000e+00
46  0.000000000000000e+00  0.000000000000000e+00  0.000000000000000e+00  0.000000000000000e+00  0.000000000000000e+00  0.000000000000000e+00
47  0.000000000000000e+00  0.000000000000000e+00  0.000000000000000e+00  0.000000000000000e+00  0.000000000000000e+00  0.000000000000000e+00
48  0.000000000000000e+00  0.000000000000000e+00  0.000000000000000e+00  0.000000000000000e+00  0.000000000000000e+00  0.000000000000000e+00
49  0.000000000000000e+00  0.000000000000000e+00  0.000000000000000e+00  0.000000000000000e+00  0.000000000000000e+00  0.000000000000000e+00
50  0.000000000000000e+00  0.000000000000000e+00  0.000000000000000e+00  0.000000000000000e+00  0.000000000000000e+00  0.000000000000000e+00
51  0.000000000000000e+00  0.000000000000000e+00  0.000000000000000e+00  0.000000000000000e+00  0.000000000000000e+00  0.000000000000000e+00