LAMMPS (29 Sep 2021 - Update 2)
#The sequence-specific interactions can be turned on/off choosing between seqdep/seqav
variable seqspec index seqdep

#Specify the temperature of the system (0.1 in SU is equivalent to 300K)
variable tem equal 0.1


### Salt concentration  ####
############################
#Specify the salt concentration the system (1.0 in SU is equivalent to 1M [NaCl])
variable sc   equal 0.15

#Effective charge in elementary charges
variable qeff equal 0.815


### Stacking parameters ####
############################
#Temperature-independent coefficient in stacking strength
variable xi    equal 1.3523

#Coefficient of linear temperature dependence in stacking strength
variable kappa equal 2.6717


### Hbond parameters ####
#########################
#Energy: 1.0678 (between base pairs A-T and C-G) and 0 (all other pairs)
variable eps equal 1.0678


#5.- The damp parameter. The default value is 0.03. The accelerated value is 1.0
variable tdamp    equal 0.03
variable tdampacc equal 2.5


#6.- The total number of nucleotides in the system
variable N equal 147

variable seed equal 402987

#The times
variable dumpfreq   equal 100000
variable trestart   equal 10000000

#total running time
variable runtime1 equal 180000000
variable runtime2 equal 200000000



units lj

dimension 3

newton off

boundary  p p p

atom_style hybrid bond ellipsoid oxdna
WARNING: Write_data command requires newton on to preserve 3'->5' bond polarity (../atom_vec_oxdna.cpp:52)
WARNING: Atom style hybrid defines both, per-type and per-atom masses; both must be set, but only per-atom masses will be used (../atom_vec_hybrid.cpp:157)
atom_modify sort 0 1.0

# Pair interactions require lists of neighbours to be calculated
neighbor 2.0 bin
neigh_modify every 1 delay 0 check yes

restart ${trestart} oxDNA.equil.N${N}.Restart
restart 10000000 oxDNA.equil.N${N}.Restart
restart 10000000 oxDNA.equil.N147.Restart
read_data val3.lammps.txt
Reading data file ...
  orthogonal box = (0.0000000 0.0000000 0.0000000) to (31.000000 31.000000 31.000000)
  1 by 1 by 1 MPI processor grid
  reading atoms ...
  141 atoms
  reading velocities ...
  141 velocities
  141 ellipsoids
  scanning bonds ...
  2 = max bonds/atom
  reading bonds ...
  138 bonds
Finding 1-2 1-3 1-4 neighbors ...
  special bond factors lj:    0        0        0       
  special bond factors coul:  0        0        0       
     2 = max # of 1-2 neighbors
     2 = max # of 1-3 neighbors
     4 = max # of 1-4 neighbors
     6 = max # of special neighbors
  special bonds CPU = 0.000 seconds
  read_data CPU = 0.025 seconds
#read_restart data/oxDNA.equil.N${N}.Restart.20000000
#reset_timestep 0

set atom * mass 3.1575
Setting atom values ...
  141 settings made for mass

#Groups
group all type 1:4
141 atoms in group all


# oxDNA2 bond interactions - FENE backbone
bond_style oxdna2/fene
bond_coeff * 2.0 0.25 0.7564
special_bonds lj 0 1 1
Finding 1-2 1-3 1-4 neighbors ...
  special bond factors lj:    0        1        1       
  special bond factors coul:  0        0        0       
     2 = max # of 1-2 neighbors
     2 = max # of 1-3 neighbors
     4 = max # of 1-4 neighbors
     6 = max # of special neighbors
  special bonds CPU = 0.000 seconds

# oxDNA2 pair interactions
pair_style hybrid/overlay oxdna2/excv oxdna2/stk oxdna2/hbond oxdna2/xstk oxdna2/coaxstk oxdna2/dh
pair_coeff * * oxdna2/excv               2.0 0.7 0.675 2.0 0.515 0.5 2.0 0.33 0.32
pair_coeff * * oxdna2/stk     ${seqspec} ${tem} ${xi} ${kappa} 6.0 0.4 0.9 0.32 0.75 1.3 0 0.8 0.9 0 0.95 0.9 0 0.95 2.0 0.65 2.0 0.65
pair_coeff * * oxdna2/stk     seqdep ${tem} ${xi} ${kappa} 6.0 0.4 0.9 0.32 0.75 1.3 0 0.8 0.9 0 0.95 0.9 0 0.95 2.0 0.65 2.0 0.65
pair_coeff * * oxdna2/stk     seqdep 0.1 ${xi} ${kappa} 6.0 0.4 0.9 0.32 0.75 1.3 0 0.8 0.9 0 0.95 0.9 0 0.95 2.0 0.65 2.0 0.65
pair_coeff * * oxdna2/stk     seqdep 0.1 1.3523 ${kappa} 6.0 0.4 0.9 0.32 0.75 1.3 0 0.8 0.9 0 0.95 0.9 0 0.95 2.0 0.65 2.0 0.65
pair_coeff * * oxdna2/stk     seqdep 0.1 1.3523 2.6717 6.0 0.4 0.9 0.32 0.75 1.3 0 0.8 0.9 0 0.95 0.9 0 0.95 2.0 0.65 2.0 0.65
pair_coeff * * oxdna2/hbond   ${seqspec} 0.0 8.0 0.4 0.75 0.34 0.7 1.5 0 0.7 1.5 0 0.7 1.5 0 0.7 0.46 3.141592653589793 0.7 4.0 1.5707963267948966 0.45 4.0 1.5707963267948966 0.45
pair_coeff * * oxdna2/hbond   seqdep 0.0 8.0 0.4 0.75 0.34 0.7 1.5 0 0.7 1.5 0 0.7 1.5 0 0.7 0.46 3.141592653589793 0.7 4.0 1.5707963267948966 0.45 4.0 1.5707963267948966 0.45
pair_coeff 1 4 oxdna2/hbond   ${seqspec} ${eps} 8.0 0.4 0.75 0.34 0.7 1.5 0 0.7 1.5 0 0.7 1.5 0 0.7 0.46 3.141592653589793 0.7 4.0 1.5707963267948966 0.45 4.0 1.5707963267948966 0.45
pair_coeff 1 4 oxdna2/hbond   seqdep ${eps} 8.0 0.4 0.75 0.34 0.7 1.5 0 0.7 1.5 0 0.7 1.5 0 0.7 0.46 3.141592653589793 0.7 4.0 1.5707963267948966 0.45 4.0 1.5707963267948966 0.45
pair_coeff 1 4 oxdna2/hbond   seqdep 1.0678 8.0 0.4 0.75 0.34 0.7 1.5 0 0.7 1.5 0 0.7 1.5 0 0.7 0.46 3.141592653589793 0.7 4.0 1.5707963267948966 0.45 4.0 1.5707963267948966 0.45
pair_coeff 2 3 oxdna2/hbond   ${seqspec} ${eps} 8.0 0.4 0.75 0.34 0.7 1.5 0 0.7 1.5 0 0.7 1.5 0 0.7 0.46 3.141592653589793 0.7 4.0 1.5707963267948966 0.45 4.0 1.5707963267948966 0.45
pair_coeff 2 3 oxdna2/hbond   seqdep ${eps} 8.0 0.4 0.75 0.34 0.7 1.5 0 0.7 1.5 0 0.7 1.5 0 0.7 0.46 3.141592653589793 0.7 4.0 1.5707963267948966 0.45 4.0 1.5707963267948966 0.45
pair_coeff 2 3 oxdna2/hbond   seqdep 1.0678 8.0 0.4 0.75 0.34 0.7 1.5 0 0.7 1.5 0 0.7 1.5 0 0.7 0.46 3.141592653589793 0.7 4.0 1.5707963267948966 0.45 4.0 1.5707963267948966 0.45
pair_coeff * * oxdna2/xstk               47.5 0.575 0.675 0.495 0.655 2.25 0.791592653589793 0.58 1.7 1.0 0.68 1.7 1.0 0.68 1.5 0 0.65 1.7 0.875 0.68 1.7 0.875 0.68
pair_coeff * * oxdna2/coaxstk            58.5 0.4 0.6 0.22 0.58 2.0 2.891592653589793 0.65 1.3 0 0.8 0.9 0 0.95 0.9 0 0.95 40.0 3.116592653589793
pair_coeff * * oxdna2/dh                 ${tem} ${sc} ${qeff}
pair_coeff * * oxdna2/dh                 0.1 ${sc} ${qeff}
pair_coeff * * oxdna2/dh                 0.1 0.15 ${qeff}
pair_coeff * * oxdna2/dh                 0.1 0.15 0.815


# NVE ensemble
fix 1 all nve/asphere
fix 2 all langevin ${tem} ${tem} ${tdamp} ${seed} angmom 10
fix 2 all langevin 0.1 ${tem} ${tdamp} ${seed} angmom 10
fix 2 all langevin 0.1 0.1 ${tdamp} ${seed} angmom 10
fix 2 all langevin 0.1 0.1 0.03 ${seed} angmom 10
fix 2 all langevin 0.1 0.1 0.03 402987 angmom 10
timestep 1e-3


#Useful commands when running in parallel
#comm_style tiled
#fix 3 all balance 10000 1.1 rcb
#comm_modify cutoff 2.65

thermo 10000
thermo_style custom  step  temp

compute erot all erotate/asphere
compute ekin all ke
compute epot all pe
variable erot equal c_erot
variable ekin equal c_ekin
variable epot equal c_epot
variable etot equal c_erot+c_ekin+c_epot
fix 4 all print ${dumpfreq} "$(step)  ekin = ${ekin} |  erot = ${erot} | epot = ${epot} | etot = ${etot}" screen no append energy_total.txt
fix 4 all print 100000 "$(step)  ekin = ${ekin} |  erot = ${erot} | epot = ${epot} | etot = ${etot}" screen no append energy_total.txt

shell mkdir data
shell cd data

#compute shape all property/atom shapex shapey shapez
compute quat all property/atom quatw quati quatj quatk

dump out all custom ${dumpfreq} out.data id mol type x y z ix iy iz c_quat[1] c_quat[2] c_quat[3] c_quat[4]
dump out all custom 100000 out.data id mol type x y z ix iy iz c_quat[1] c_quat[2] c_quat[3] c_quat[4]
dump_modify out sort id
dump_modify out format line "%d %d %d %.6le %.6le %.6le %d %d %d %.6le %.6le %.6le %.6le"

run ${runtime1}
run 180000000
Neighbor list info ...
  update every 1 steps, delay 0 steps, check yes
  max neighbors/atom: 2000, page size: 100000
  master list distance cutoff = 6.2019411
  ghost atom cutoff = 6.2019411
  binsize = 3.1009705, bins = 10 10 10
  5 neighbor lists, perpetual/occasional/extra = 5 0 0
  (1) pair oxdna2/excv, perpetual
      attributes: half, newton off
      pair build: half/bin/newtoff
      stencil: full/bin/3d
      bin: standard
  (2) pair oxdna2/hbond, perpetual, copy from (1)
      attributes: half, newton off
      pair build: copy
      stencil: none
      bin: none
  (3) pair oxdna2/xstk, perpetual, copy from (1)
      attributes: half, newton off
      pair build: copy
      stencil: none
      bin: none
  (4) pair oxdna2/coaxstk, perpetual, copy from (1)
      attributes: half, newton off
      pair build: copy
      stencil: none
      bin: none
  (5) pair oxdna2/dh, perpetual, copy from (1)
      attributes: half, newton off
      pair build: copy
      stencil: none
      bin: none
WARNING: FENE bond too long: 0 28 27 1.2328891983020442 (../bond_oxdna_fene.cpp:209)
WARNING: FENE bond too long: 0 27 28 1.2328891983020434 (../bond_oxdna_fene.cpp:209)
WARNING: FENE bond too long: 0 75 74 1.2328801146248212 (../bond_oxdna_fene.cpp:209)
WARNING: FENE bond too long: 0 74 75 1.2328801146248216 (../bond_oxdna_fene.cpp:209)
WARNING: FENE bond too long: 0 122 121 1.2328797867937824 (../bond_oxdna_fene.cpp:209)
WARNING: FENE bond too long: 0 121 122 1.2328797867937806 (../bond_oxdna_fene.cpp:209)
Per MPI rank memory allocation (min/avg/max) = 9.673 | 9.673 | 9.673 Mbytes
Step Temp 
       0            0 
WARNING: FENE bond too long: 1 28 27 1.2327200635412043 (../bond_oxdna_fene.cpp:209)
WARNING: FENE bond too long: 1 27 28 1.232720063541204 (../bond_oxdna_fene.cpp:209)
WARNING: FENE bond too long: 1 75 74 1.2329509640285183 (../bond_oxdna_fene.cpp:209)
WARNING: FENE bond too long: 1 74 75 1.2329509640285181 (../bond_oxdna_fene.cpp:209)
WARNING: FENE bond too long: 1 122 121 1.232618347446836 (../bond_oxdna_fene.cpp:209)
WARNING: FENE bond too long: 1 121 122 1.2326183474468373 (../bond_oxdna_fene.cpp:209)
WARNING: FENE bond too long: 2 28 27 1.2323769314225288 (../bond_oxdna_fene.cpp:209)
WARNING: FENE bond too long: 2 27 28 1.232376931422528 (../bond_oxdna_fene.cpp:209)
WARNING: FENE bond too long: 2 75 74 1.2328543097991962 (../bond_oxdna_fene.cpp:209)
WARNING: FENE bond too long: 2 74 75 1.2328543097991982 (../bond_oxdna_fene.cpp:209)
WARNING: FENE bond too long: 2 122 121 1.2324585860117458 (../bond_oxdna_fene.cpp:209)
WARNING: FENE bond too long: 2 121 122 1.232458586011744 (../bond_oxdna_fene.cpp:209)
WARNING: FENE bond too long: 3 28 27 1.2318414787423841 (../bond_oxdna_fene.cpp:209)
WARNING: FENE bond too long: 3 27 28 1.2318414787423841 (../bond_oxdna_fene.cpp:209)
WARNING: FENE bond too long: 3 75 74 1.2324632612849324 (../bond_oxdna_fene.cpp:209)
WARNING: FENE bond too long: 3 74 75 1.2324632612849333 (../bond_oxdna_fene.cpp:209)
WARNING: FENE bond too long: 3 122 121 1.2314830124186478 (../bond_oxdna_fene.cpp:209)
WARNING: FENE bond too long: 3 121 122 1.2314830124186502 (../bond_oxdna_fene.cpp:209)
WARNING: FENE bond too long: 4 28 27 1.231225668791919 (../bond_oxdna_fene.cpp:209)
WARNING: FENE bond too long: 4 27 28 1.2312256687919179 (../bond_oxdna_fene.cpp:209)
WARNING: FENE bond too long: 4 75 74 1.2314211266155441 (../bond_oxdna_fene.cpp:209)
WARNING: FENE bond too long: 4 74 75 1.2314211266155441 (../bond_oxdna_fene.cpp:209)
WARNING: FENE bond too long: 4 122 121 1.229980163711282 (../bond_oxdna_fene.cpp:209)
WARNING: FENE bond too long: 4 121 122 1.2299801637112813 (../bond_oxdna_fene.cpp:209)
WARNING: FENE bond too long: 5 28 27 1.230899724801727 (../bond_oxdna_fene.cpp:209)
WARNING: FENE bond too long: 5 27 28 1.230899724801726 (../bond_oxdna_fene.cpp:209)
WARNING: FENE bond too long: 5 75 74 1.2305105897619706 (../bond_oxdna_fene.cpp:209)
WARNING: FENE bond too long: 5 74 75 1.2305105897619715 (../bond_oxdna_fene.cpp:209)
WARNING: FENE bond too long: 5 122 121 1.228946743858624 (../bond_oxdna_fene.cpp:209)
WARNING: FENE bond too long: 5 121 122 1.2289467438586221 (../bond_oxdna_fene.cpp:209)
WARNING: FENE bond too long: 6 28 27 1.2301177243583221 (../bond_oxdna_fene.cpp:209)
WARNING: FENE bond too long: 6 27 28 1.2301177243583226 (../bond_oxdna_fene.cpp:209)
WARNING: FENE bond too long: 6 75 74 1.2291667246116398 (../bond_oxdna_fene.cpp:209)
WARNING: FENE bond too long: 6 74 75 1.2291667246116387 (../bond_oxdna_fene.cpp:209)
WARNING: FENE bond too long: 6 122 121 1.22794884903666 (../bond_oxdna_fene.cpp:209)
WARNING: FENE bond too long: 6 121 122 1.227948849036663 (../bond_oxdna_fene.cpp:209)
WARNING: FENE bond too long: 7 28 27 1.229358115535497 (../bond_oxdna_fene.cpp:209)
WARNING: FENE bond too long: 7 27 28 1.2293581155354985 (../bond_oxdna_fene.cpp:209)
WARNING: FENE bond too long: 7 75 74 1.2278871984860211 (../bond_oxdna_fene.cpp:209)
WARNING: FENE bond too long: 7 74 75 1.2278871984860202 (../bond_oxdna_fene.cpp:209)
WARNING: FENE bond too long: 7 122 121 1.2267483860174893 (../bond_oxdna_fene.cpp:209)
WARNING: FENE bond too long: 7 121 122 1.2267483860174886 (../bond_oxdna_fene.cpp:209)
WARNING: FENE bond too long: 8 28 27 1.2285783204306868 (../bond_oxdna_fene.cpp:209)
WARNING: FENE bond too long: 8 27 28 1.228578320430687 (../bond_oxdna_fene.cpp:209)
WARNING: FENE bond too long: 8 75 74 1.2265227320943395 (../bond_oxdna_fene.cpp:209)
WARNING: FENE bond too long: 8 74 75 1.2265227320943388 (../bond_oxdna_fene.cpp:209)
WARNING: FENE bond too long: 8 122 121 1.2254420080600066 (../bond_oxdna_fene.cpp:209)
WARNING: FENE bond too long: 8 121 122 1.2254420080600106 (../bond_oxdna_fene.cpp:209)
WARNING: FENE bond too long: 9 28 27 1.2276076009026413 (../bond_oxdna_fene.cpp:209)
WARNING: FENE bond too long: 9 27 28 1.2276076009026409 (../bond_oxdna_fene.cpp:209)
WARNING: FENE bond too long: 9 75 74 1.2248693682807372 (../bond_oxdna_fene.cpp:209)
WARNING: FENE bond too long: 9 74 75 1.2248693682807377 (../bond_oxdna_fene.cpp:209)
WARNING: FENE bond too long: 9 122 121 1.2240474131527082 (../bond_oxdna_fene.cpp:209)
WARNING: FENE bond too long: 9 121 122 1.224047413152708 (../bond_oxdna_fene.cpp:209)
WARNING: FENE bond too long: 10 28 27 1.2265370417658596 (../bond_oxdna_fene.cpp:209)
WARNING: FENE bond too long: 10 27 28 1.226537041765859 (../bond_oxdna_fene.cpp:209)
WARNING: FENE bond too long: 10 75 74 1.2233741167216146 (../bond_oxdna_fene.cpp:209)
WARNING: FENE bond too long: 10 74 75 1.223374116721615 (../bond_oxdna_fene.cpp:209)
WARNING: FENE bond too long: 10 122 121 1.2222176526685267 (../bond_oxdna_fene.cpp:209)
WARNING: FENE bond too long: 10 121 122 1.2222176526685262 (../bond_oxdna_fene.cpp:209)
WARNING: FENE bond too long: 11 28 27 1.2249558511695997 (../bond_oxdna_fene.cpp:209)
WARNING: FENE bond too long: 11 27 28 1.2249558511695982 (../bond_oxdna_fene.cpp:209)
WARNING: FENE bond too long: 11 75 74 1.2219652169180975 (../bond_oxdna_fene.cpp:209)
WARNING: FENE bond too long: 11 74 75 1.2219652169180966 (../bond_oxdna_fene.cpp:209)
WARNING: FENE bond too long: 11 122 121 1.2201940542611638 (../bond_oxdna_fene.cpp:209)
WARNING: FENE bond too long: 11 121 122 1.2201940542611651 (../bond_oxdna_fene.cpp:209)
WARNING: FENE bond too long: 12 28 27 1.2233278424015805 (../bond_oxdna_fene.cpp:209)
WARNING: FENE bond too long: 12 27 28 1.2233278424015817 (../bond_oxdna_fene.cpp:209)
WARNING: FENE bond too long: 12 75 74 1.2207758590083682 (../bond_oxdna_fene.cpp:209)
WARNING: FENE bond too long: 12 74 75 1.2207758590083684 (../bond_oxdna_fene.cpp:209)
WARNING: FENE bond too long: 12 122 121 1.2183627742649792 (../bond_oxdna_fene.cpp:209)
WARNING: FENE bond too long: 12 121 122 1.2183627742649783 (../bond_oxdna_fene.cpp:209)
WARNING: FENE bond too long: 13 28 27 1.2217174313545327 (../bond_oxdna_fene.cpp:209)
WARNING: FENE bond too long: 13 27 28 1.2217174313545318 (../bond_oxdna_fene.cpp:209)
WARNING: FENE bond too long: 13 75 74 1.2195246082448967 (../bond_oxdna_fene.cpp:209)
WARNING: FENE bond too long: 13 74 75 1.2195246082448958 (../bond_oxdna_fene.cpp:209)
WARNING: FENE bond too long: 13 122 121 1.2164172767293733 (../bond_oxdna_fene.cpp:209)
WARNING: FENE bond too long: 13 121 122 1.2164172767293724 (../bond_oxdna_fene.cpp:209)
WARNING: FENE bond too long: 14 28 27 1.2196814753601084 (../bond_oxdna_fene.cpp:209)
WARNING: FENE bond too long: 14 27 28 1.2196814753601097 (../bond_oxdna_fene.cpp:209)
WARNING: FENE bond too long: 14 75 74 1.2178350738172092 (../bond_oxdna_fene.cpp:209)
WARNING: FENE bond too long: 14 74 75 1.2178350738172115 (../bond_oxdna_fene.cpp:209)
WARNING: FENE bond too long: 14 122 121 1.2145668091885025 (../bond_oxdna_fene.cpp:209)
WARNING: FENE bond too long: 14 121 122 1.2145668091885027 (../bond_oxdna_fene.cpp:209)
WARNING: FENE bond too long: 15 28 27 1.2177465364210518 (../bond_oxdna_fene.cpp:209)
WARNING: FENE bond too long: 15 27 28 1.2177465364210516 (../bond_oxdna_fene.cpp:209)
WARNING: FENE bond too long: 15 75 74 1.2165402758536932 (../bond_oxdna_fene.cpp:209)
WARNING: FENE bond too long: 15 74 75 1.2165402758536923 (../bond_oxdna_fene.cpp:209)
WARNING: FENE bond too long: 15 122 121 1.2128651842083216 (../bond_oxdna_fene.cpp:209)
WARNING: FENE bond too long: 15 121 122 1.212865184208318 (../bond_oxdna_fene.cpp:209)
WARNING: FENE bond too long: 16 28 27 1.2161729162889507 (../bond_oxdna_fene.cpp:209)
WARNING: FENE bond too long: 16 27 28 1.2161729162889499 (../bond_oxdna_fene.cpp:209)
WARNING: Too many warnings: 726 vs 100. All future warnings will be suppressed (../thermo.cpp:422)
   10000   0.10053172 
   20000   0.10742537 
   30000  0.098799626 
   40000  0.094012317 
   50000   0.11036739 
   60000   0.10269021 
   70000  0.097422147 
   80000   0.08891549 
   90000   0.10681757 
  100000   0.10434561 
  110000   0.10238257 
  120000   0.11435524 
  130000   0.10482974 
  140000   0.10086907 
  150000  0.094900231 
  160000   0.10570228 
  170000   0.10019823 
  180000  0.099328868 
  190000   0.10604472 
  200000   0.10042686 
  210000   0.10083351 
  220000  0.096942561 
  230000  0.097965014 
  240000   0.11222373 
  250000  0.098874392 
  260000   0.10242839 
  270000  0.097770531 
  280000  0.097130298 
  290000   0.10234851 
  300000   0.10187636 
  310000   0.10356831 
  320000   0.10426505 
  330000   0.10304496 
  340000  0.098034404 
  350000    0.1008536 
  360000  0.089278439 
  370000  0.099815832 
  380000   0.10224381 
  390000   0.10132237 
  400000   0.10038778 
  410000   0.10514679 
  420000   0.10387214 
  430000   0.10290367 
  440000   0.10745403 
  450000  0.090386931 
  460000   0.10462109 
  470000   0.10018006 
  480000   0.10474233 
  490000   0.10733654 
  500000   0.10968903 
  510000  0.093035748 
  520000  0.096846632 
  530000    0.1006854 
  540000   0.11417931 
  550000   0.10739709 
  560000   0.11463328 
  570000  0.096380635 
  580000   0.10535245 
  590000   0.09873157 
  600000   0.10444816 
  610000   0.10888106 
  620000   0.11959661 
  630000   0.10304187 
  640000  0.094413157 
  650000   0.10897476 
  660000  0.094055836 
  670000   0.10011293 
  680000  0.097604739 
  690000   0.10089033 
  700000  0.089203062 
  710000    0.1069076 
  720000   0.10919212 
  730000   0.11018583 
  740000  0.098708312 
  750000  0.095767095 
  760000  0.095731595 
  770000  0.097443732 
  780000   0.11399418 
  790000   0.10829106 
  800000   0.10130517 
  810000   0.11743722 
  820000   0.11135419 
  830000  0.090461892 
  840000  0.099790386 
  850000  0.095841582 
  860000   0.10030226 
  870000   0.10993871 
  880000   0.10812967 
  890000   0.10806582 
  900000   0.10641527 
  910000   0.10631537 
  920000   0.10268343 
  930000  0.099933778 
  940000   0.10077421 
  950000    0.1093151 
  960000   0.10163526 
  970000   0.10860773 
  980000   0.10551881 
  990000   0.10229825 
 1000000   0.10366063 
 1010000  0.094289264 
 1020000   0.10131378 
 1030000  0.092156379 
 1040000   0.10497514 
 1050000   0.11366743 
 1060000  0.097272874 
 1070000  0.097325082 
 1080000   0.10768416 
 1090000  0.092046623 
 1100000  0.090061715 
 1110000  0.098957528 
 1120000   0.09539267 
 1130000  0.092740237 
 1140000   0.10765677 
 1150000   0.10029886 
 1160000   0.10162381 
 1170000  0.093397135 
 1180000   0.10118193 
 1190000   0.10528051 
 1200000   0.10495839 
 1210000  0.086879917 
 1220000    0.1018023 
 1230000  0.093136595 
 1240000     0.101161 
 1250000   0.09511871 
 1260000    0.1105466 
 1270000    0.1067407 
 1280000   0.10367084 
 1290000  0.096204854 
 1300000   0.10065319 
 1310000   0.10708422 
 1320000   0.10052507 
 1330000  0.092497372 
 1340000   0.10044592 
 1350000  0.099373906 
 1360000  0.089306568 
 1370000   0.11396462 
 1380000  0.094014186 
 1390000  0.094910419 
 1400000   0.10055638 
 1410000  0.099454166 
 1420000   0.10157853 
 1430000    0.0986877 
 1440000  0.095559676 
 1450000  0.091906528 
 1460000  0.098079677 
 1470000   0.10637501 
 1480000   0.11156314 
 1490000  0.088394028 
 1500000  0.093503294 
 1510000   0.09682716 
 1520000   0.10202751 
 1530000   0.11761143 
 1540000  0.097435691 
 1550000   0.10211494 
 1560000   0.10249839 
 1570000   0.10448371 
 1580000  0.090891311 
 1590000  0.097657656 
 1600000   0.10008061 
 1610000   0.10199489 
 1620000  0.093001868 
 1630000  0.097818496 
 1640000   0.10737643 
 1650000   0.12179161 
 1660000   0.10023092 
 1670000   0.10290354 
 1680000  0.096255957 
 1690000   0.10091621 
 1700000  0.094552974 
 1710000  0.084447641 
 1720000  0.097585859 
 1730000   0.10402872 
 1740000   0.10205243 
 1750000   0.10275342 
 1760000   0.10477832 
 1770000   0.10912064 
 1780000    0.1141165 
 1790000   0.10185339 
 1800000   0.10883946 
 1810000  0.088385939 
 1820000  0.089289361 
 1830000    0.1024883 
 1840000  0.099314564 
 1850000  0.098490006 
 1860000   0.09832543 
 1870000   0.10096234 
 1880000  0.095626741 
 1890000   0.11093397 
 1900000  0.093338595 
 1910000  0.087352795 
 1920000  0.099958291 
 1930000   0.10919835 
 1940000   0.10116207 
 1950000   0.10468905 
 1960000   0.10727936 
 1970000  0.091328362 
 1980000   0.08961882 
 1990000   0.10212156 
 2000000  0.096820081 
 2010000   0.10112532 
 2020000   0.10590189 
 2030000  0.099250139 
 2040000  0.096065209 
 2050000   0.10147641 
 2060000  0.086217064 
 2070000   0.09745391 
 2080000   0.10446809 
 2090000   0.11136265 
 2100000  0.090890541 
 2110000  0.096934435 
 2120000  0.089697463 
 2130000   0.10478128 
 2140000  0.091213424 
 2150000  0.096979915 
 2160000  0.099529357 
 2170000  0.090652985 
 2180000   0.11428894 
 2190000  0.099436904 
 2200000    0.1109748 
 2210000  0.099002841 
 2220000   0.10462576 
 2230000  0.091716997 
 2240000   0.09907362 
 2250000   0.10427452 
 2260000  0.083274009 
 2270000  0.097552235 
 2280000  0.093243892 
 2290000   0.10487072 
 2300000  0.093382577 
 2310000   0.10320382 
 2320000   0.09843164 
 2330000   0.10419333 
 2340000  0.098510335 
 2350000   0.10353098 
 2360000   0.10000017 
 2370000    0.1073751 
 2380000   0.10028821 
 2390000   0.10228492 
 2400000   0.10398441 
 2410000  0.089070432 
 2420000   0.10836634 
 2430000  0.083336381 
 2440000  0.094238009 
 2450000   0.10852132 
 2460000   0.11270617 
 2470000   0.11024327 
 2480000   0.10195979 
 2490000   0.11486108 
 2500000  0.099108027 
 2510000  0.088716729 
 2520000  0.096818118 
 2530000   0.10068711 
 2540000  0.099072279 
 2550000  0.097013808 
 2560000   0.11166042 
 2570000   0.10292134 
 2580000   0.10016204 
 2590000   0.11629051 
 2600000    0.1074344 
 2610000  0.095368857 
 2620000   0.10438448 
 2630000   0.10199197 
 2640000   0.10390659 
 2650000   0.10227628 
 2660000  0.099923601 
 2670000   0.11200815 
 2680000   0.10338914 
 2690000  0.096866402 
 2700000  0.098698066 
 2710000   0.10501309 
 2720000   0.10968235 
 2730000   0.10303168 
 2740000   0.10385802 
 2750000   0.10240444 
 2760000  0.094191473 
 2770000   0.10594839 
 2780000  0.088839072 
 2790000  0.088942685 
 2800000    0.1042823 
 2810000   0.10798814 
 2820000   0.10256879 
 2830000  0.092022775 
 2840000   0.10201261 
 2850000  0.094359712 
 2860000   0.10271202 
 2870000   0.11022459 
 2880000  0.091668677 
 2890000   0.10515112 
 2900000  0.094271478 
 2910000   0.10045662 
 2920000   0.09136877 
 2930000  0.089118545 
 2940000   0.10095998 
 2950000   0.10145526 
 2960000   0.09419583 
 2970000  0.092497057 
 2980000   0.11500893 
 2990000   0.10079419 
 3000000  0.099807633 
 3010000   0.10191312 
 3020000   0.09514009 
 3030000  0.096944331 
 3040000   0.10606837 
 3050000  0.094634512 
 3060000  0.094921542 
 3070000   0.10548609 
 3080000  0.097963279 
 3090000   0.09442867 
 3100000   0.10386998 
 3110000   0.10170308 
 3120000   0.10060672 
 3130000   0.10102267 
 3140000  0.091016833 
 3150000   0.10029846 
 3160000   0.10711967 
 3170000  0.097906978 
 3180000   0.10724895 
 3190000  0.095284301 
 3200000   0.10673157 
 3210000  0.099672947 
 3220000   0.10162167 
 3230000  0.094961133 
 3240000  0.090410043 
 3250000   0.10497595 
 3260000  0.088394914 
 3270000  0.093040655 
 3280000  0.095604888 
 3290000   0.11168307 
 3300000   0.10290484 
 3310000  0.098712756 
 3320000   0.10045128 
 3330000  0.095902106 
 3340000   0.10070222 
 3350000    0.1023816 
 3360000   0.10305003 
 3370000    0.1141883 
 3380000   0.11059245 
 3390000  0.085663013 
 3400000   0.09474498 
 3410000   0.11033939 
 3420000  0.092233151 
 3430000  0.098248412 
 3440000   0.10150412 
 3450000  0.093089879 
 3460000   0.11075204 
 3470000    0.1032436 
 3480000  0.098110951 
 3490000  0.092103061 
 3500000  0.099016739 
 3510000  0.088802416 
 3520000  0.093277536 
 3530000  0.093055064 
 3540000  0.090579046 
 3550000  0.094950523 
 3560000   0.11146912 
 3570000  0.095381877 
 3580000  0.094519883 
 3590000   0.09830269 
 3600000  0.091083766 
 3610000   0.10433204 
 3620000   0.10325231 
 3630000   0.10544381 
 3640000   0.10782183 
 3650000   0.11031762 
 3660000  0.094925719 
 3670000   0.11238478 
 3680000   0.10120884 
 3690000   0.11008266 
 3700000   0.09236732 
 3710000    0.1047728 
 3720000   0.10735108 
 3730000  0.096903796 
 3740000   0.10015091 
 3750000  0.095957824 
 3760000   0.10358303 
 3770000   0.11232368 
 3780000   0.10176788 
 3790000  0.097503776 
 3800000   0.10035015 
 3810000  0.092727052 
 3820000  0.095178048 
 3830000  0.092425617 
 3840000   0.10898509 
 3850000  0.098956415 
 3860000  0.097544179 
 3870000  0.099642594 
 3880000   0.11164076 
 3890000  0.096962335 
 3900000  0.093583046 
 3910000  0.094314274 
 3920000   0.10528025 
 3930000  0.099862932 
 3940000  0.097495901 
 3950000  0.097587703 
 3960000  0.095140035 
 3970000   0.12015321 
 3980000  0.096040919 
 3990000  0.096224844 
 4000000   0.10381306 
 4010000   0.10340319 
 4020000  0.091374691 
 4030000  0.098654339 
 4040000   0.10197467 
 4050000    0.1084413 
 4060000   0.10781596 
 4070000   0.10030451 
 4080000   0.10042373 
 4090000   0.10353135 
 4100000   0.11002722 
 4110000   0.10268247 
 4120000   0.10675885 
 4130000   0.10302526 
 4140000   0.10110095 
 4150000  0.098997709 
 4160000  0.092671728 
 4170000   0.10019926 
 4180000  0.092252951 
 4190000   0.10528766 
 4200000   0.10073267 
 4210000  0.097601838 
 4220000  0.093081886 
 4230000  0.096320311 
 4240000  0.086164615 
 4250000   0.10701393 
 4260000   0.10560583 
 4270000   0.10342803 
 4280000  0.093874573 
 4290000   0.10665151 
 4300000  0.096698485 
 4310000   0.10829804 
 4320000  0.093264896 
 4330000  0.097892734 
 4340000    0.1161931 
 4350000   0.10400414 
 4360000   0.10664664 
 4370000   0.12020945 
 4380000    0.1044042 
 4390000  0.090965894 
 4400000   0.09639119 
 4410000   0.10690951 
 4420000  0.096083698 
 4430000   0.09954626 
 4440000   0.10454029 
 4450000   0.08230209 
 4460000  0.094104472 
 4470000   0.10078539 
 4480000  0.089844903 
 4490000   0.11416278 
 4500000  0.090578986 
 4510000   0.10496684 
 4520000   0.11043369 
 4530000  0.095534511 
 4540000  0.089004324 
 4550000   0.10408512 
 4560000   0.10778857 
 4570000  0.096137025 
 4580000  0.092846992 
 4590000   0.10421314 
 4600000   0.10058543 
 4610000   0.10215787 
 4620000   0.11375603 
 4630000  0.088386557 
 4640000   0.11148467 
 4650000  0.097433145 
 4660000   0.10351358 
 4670000   0.10301224 
 4680000   0.10339604 
 4690000  0.098693683 
 4700000  0.098659974 
 4710000   0.11966267 
 4720000   0.12233916 
 4730000   0.10287789 
 4740000   0.11057785 
 4750000  0.085817637 
 4760000   0.10367966 
 4770000  0.098125555 
 4780000   0.10288822 
 4790000    0.1077973 
 4800000  0.096890627 
 4810000   0.10308294 
 4820000   0.09762289 
 4830000  0.098339825 
 4840000  0.095859803 
 4850000   0.10285767 
 4860000   0.09507731 
 4870000  0.098325763 
 4880000   0.10841008 
 4890000  0.095232753 
 4900000   0.10667771 
 4910000  0.093853181 
 4920000   0.11362261 
 4930000   0.10091463 
 4940000   0.10228654 
 4950000   0.11304188 
 4960000   0.10650541 
 4970000  0.096573813 
 4980000  0.098004462 
 4990000  0.096743919 
 5000000  0.088457869 
 5010000  0.087085281 
 5020000   0.10598748 
 5030000  0.096170527 
 5040000  0.092698389 
 5050000   0.12143958 
 5060000  0.091672955 
 5070000  0.090023944 
 5080000  0.097779939 
 5090000   0.10748125 
 5100000  0.099084568 
 5110000  0.098588486 
 5120000  0.095012404 
 5130000  0.094350983 
 5140000   0.10121151 
 5150000   0.10123736 
 5160000  0.094903382 
 5170000  0.094127815 
 5180000   0.10457034 
 5190000   0.11013996 
 5200000   0.10044546 
 5210000  0.095276671 
 5220000  0.090056759 
 5230000   0.10533138 
 5240000  0.096557376 
 5250000   0.09003162 
 5260000   0.10419142 
 5270000  0.096633828 
 5280000   0.10481146 
 5290000  0.099273634 
 5300000   0.10156609 
 5310000   0.10789731 
 5320000  0.098558477 
 5330000     0.109898 
 5340000   0.10516212 
 5350000   0.10908948 
 5360000  0.089245788 
 5370000    0.1079466 
 5380000   0.11174213 
 5390000   0.10161167 
 5400000   0.09854673 
 5410000   0.11168168 
 5420000  0.099301845 
 5430000   0.10616951 
 5440000  0.087782755 
 5450000   0.09350562 
 5460000   0.09935446 
 5470000   0.10682757 
 5480000  0.095042026 
 5490000   0.09250521 
 5500000  0.086400774 
 5510000  0.099878653 
 5520000   0.11085958 
 5530000   0.10516678 
 5540000  0.091104933 
 5550000   0.10782008 
 5560000   0.11061875 
 5570000  0.093378202 
 5580000   0.10280531 
 5590000  0.098255555 
 5600000   0.08899263 
 5610000  0.097877259 
 5620000   0.11373089 
 5630000  0.096671371 
 5640000   0.10956578 
 5650000   0.10866092 
 5660000   0.09415104 
 5670000   0.10888436 
 5680000   0.10151503 
 5690000   0.10422848 
 5700000   0.11081532 
 5710000   0.10663939 
 5720000  0.097148393 
 5730000   0.10473419 
 5740000   0.10549119 
 5750000   0.10059259 
 5760000  0.097754365 
 5770000  0.094000812 
 5780000  0.094830739 
 5790000   0.10546842 
 5800000   0.10848785 
 5810000  0.097319153 
 5820000   0.10148035 
 5830000   0.11040672 
 5840000   0.10281863 
 5850000  0.097578413 
 5860000  0.097927081 
 5870000   0.10710682 
 5880000  0.092920611 
 5890000  0.097518269 
 5900000   0.11065877 
 5910000   0.10041031 
 5920000   0.11343939 
 5930000    0.1042444 
 5940000   0.10328517 
 5950000  0.093951807 
 5960000   0.09830271 
 5970000   0.11306373 
 5980000   0.11211891 
 5990000   0.10982797 
 6000000   0.11031614 
 6010000   0.09975918 
 6020000  0.090056784 
 6030000  0.091351464 
 6040000    0.1022268 
 6050000  0.091698903 
 6060000  0.094644318 
 6070000    0.1120606 
 6080000    0.0967005 
 6090000  0.097681084 
 6100000  0.091549576 
 6110000  0.097880941 
 6120000  0.099699696 
 6130000   0.10344979 
 6140000   0.10438257 
 6150000  0.089121104 
 6160000   0.11072656 
 6170000   0.11075313 
 6180000   0.10657403 
 6190000    0.1004549 
 6200000   0.11575916 
 6210000   0.10320911 
 6220000   0.10014237 
 6230000   0.10374501 
 6240000   0.10436851 
 6250000   0.10988234 
 6260000   0.10690568 
 6270000   0.11037175 
 6280000   0.10680447 
 6290000   0.11314938 
 6300000  0.097501611 
 6310000   0.10055298 
 6320000   0.10443724 
 6330000  0.095595536 
 6340000   0.11193505 
 6350000   0.09752668 
 6360000   0.09668855 
 6370000   0.11963743 
 6380000  0.096891301 
 6390000   0.10042902 
 6400000  0.095904379 
 6410000  0.093799944 
 6420000  0.098100667 
 6430000   0.10173307 
 6440000   0.10156215 
 6450000  0.093907216 
 6460000   0.10025697 
 6470000  0.083817358 
 6480000   0.10763078 
 6490000   0.10049226 
 6500000     0.114566 
 6510000   0.10911217 
 6520000  0.099182963 
 6530000  0.098758676 
 6540000  0.095910682 
 6550000  0.089054979 
 6560000    0.1096493 
 6570000   0.10041262 
 6580000  0.097507968 
 6590000   0.10826748 
 6600000    0.1093664 
 6610000  0.096842791 
 6620000   0.10989337 
 6630000   0.10694608 
 6640000   0.10571615 
 6650000  0.096141316 
 6660000   0.10613694 
 6670000   0.09872982 
 6680000  0.097426912 
 6690000   0.11402661 
 6700000   0.10865577 
 6710000   0.11686014 
 6720000    0.1037026 
 6730000   0.09382556 
 6740000   0.10532746 
 6750000   0.10342431 
 6760000   0.10985346 
 6770000  0.097642103 
 6780000    0.1031083 
 6790000  0.099989693 
 6800000    0.1004845 
 6810000   0.10232529 
 6820000  0.093057628 
 6830000   0.11554552 
 6840000   0.09913568 
 6850000  0.097480512 
 6860000  0.094609586 
 6870000   0.10576636 
 6880000  0.093574491 
 6890000  0.094400499 
 6900000   0.10494985 
 6910000  0.094365846 
 6920000  0.097610999 
 6930000  0.099630551 
 6940000     0.106593 
 6950000  0.098291783 
 6960000  0.097601894 
 6970000   0.10432085 
 6980000  0.097720648 
 6990000   0.10547573 
 7000000   0.11591487 
 7010000   0.10906258 
 7020000   0.10932232 
 7030000   0.10419485 
 7040000  0.094275571 
 7050000   0.10444502 
 7060000   0.10912479 
 7070000   0.10557978 
 7080000   0.10880806 
 7090000   0.10228825 
 7100000   0.11186249 
 7110000  0.095675144 
 7120000   0.11441232 
 7130000   0.11127802 
 7140000   0.10833656 
 7150000     0.101724 
 7160000   0.11118996 
 7170000  0.090479624 
 7180000  0.090957278 
 7190000   0.10714092 
 7200000  0.093388673 
 7210000   0.10364329 
 7220000   0.10085079 
 7230000  0.097435463 
 7240000  0.096385307 
 7250000   0.10020657 
 7260000   0.10440363 
 7270000  0.099507295 
 7280000  0.098479535 
 7290000   0.10227474 
 7300000  0.092287558 
 7310000   0.10919859 
 7320000  0.098611085 
 7330000  0.091986955 
 7340000  0.094717859 
 7350000  0.097366992 
 7360000   0.09407903 
 7370000   0.09888576 
 7380000   0.11024479 
 7390000    0.1059909 
 7400000   0.11193775 
 7410000   0.10204425 
 7420000  0.083945202 
 7430000  0.093211877 
 7440000    0.1048066 
 7450000  0.091518169 
 7460000   0.11275365 
 7470000  0.099463078 
 7480000   0.10374008 
 7490000  0.095856937 
 7500000  0.095056387 
 7510000  0.099023352 
 7520000   0.12117223 
 7530000   0.10762488 
 7540000  0.092249728 
 7550000   0.10207397 
 7560000   0.10819574 
 7570000  0.095313758 
 7580000  0.079427808 
 7590000   0.10618421 
 7600000   0.10608307 
 7610000  0.096148935 
 7620000   0.11016601 
 7630000   0.11398188 
 7640000  0.090597884 
 7650000    0.1005154 
 7660000   0.12676571 
 7670000   0.09934175 
 7680000   0.10316515 
 7690000  0.093021306 
 7700000  0.084597597 
 7710000   0.10408354 
 7720000  0.099871104 
 7730000  0.093325672 
 7740000  0.089000745 
 7750000   0.10788952 
 7760000    0.1085531 
 7770000   0.10141642 
 7780000   0.10138888 
 7790000   0.10571254 
 7800000   0.11394734 
 7810000   0.11131031 
 7820000   0.10396945 
 7830000  0.094513795 
 7840000   0.10450644 
 7850000  0.093757895 
 7860000  0.098857236 
 7870000  0.094108888 
 7880000   0.10401383 
 7890000   0.10695511 
 7900000  0.093553033 
 7910000   0.10217632 
 7920000  0.097739266 
 7930000  0.093403325 
 7940000  0.093258405 
 7950000   0.10803489 
 7960000   0.10789765 
 7970000   0.10364536 
 7980000   0.11390327 
 7990000  0.097095854 
 8000000   0.09922552 
 8010000  0.097047048 
 8020000   0.10751548 
 8030000     0.109228 
 8040000  0.092828302 
 8050000   0.11809556 
 8060000  0.097860798 
 8070000   0.10170405 
 8080000  0.097125995 
 8090000   0.10239707 
 8100000   0.11328066 
 8110000   0.10821697 
 8120000  0.090363408 
 8130000  0.095755469 
 8140000   0.10404332 
 8150000   0.10027317 
 8160000    0.1033303 
 8170000  0.095403377 
 8180000  0.098956207 
 8190000   0.10573253 
 8200000   0.10342275 
 8210000  0.097968271 
 8220000   0.10014376 
 8230000   0.10295151 
 8240000   0.09786975 
 8250000  0.097144584 
 8260000  0.092126008 
 8270000  0.096107383 
 8280000   0.10295503 
 8290000  0.097686849 
 8300000   0.10887128 
 8310000  0.087654598 
 8320000  0.090882398 
 8330000   0.11047617 
 8340000  0.097010655 
 8350000  0.091434396 
 8360000   0.11110439 
 8370000   0.10319287 
 8380000    0.1014775 
 8390000   0.10250381 
 8400000   0.10116212 
 8410000  0.091285696 
 8420000  0.099382973 
 8430000   0.10473691 
 8440000    0.1007143 
 8450000   0.08492647 
 8460000   0.10246253 
 8470000   0.10315358 
 8480000   0.10463317 
 8490000  0.099980407 
 8500000  0.094398972 
 8510000   0.11890852 
 8520000   0.10669293 
 8530000  0.092935527 
 8540000   0.10637796 
 8550000   0.10036501 
 8560000   0.10744059 
 8570000  0.097221846 
 8580000   0.10516477 
 8590000   0.10446646 
 8600000  0.097239051 
 8610000   0.11780692 
 8620000   0.10234471 
 8630000  0.094759647 
 8640000   0.10060846 
 8650000   0.09468567 
 8660000   0.09511419 
 8670000   0.10443744 
 8680000  0.095261336 
 8690000   0.10458645 
 8700000   0.11045776 
 8710000   0.11533786 
 8720000   0.10027862 
 8730000   0.09203106 
 8740000  0.099396348 
 8750000  0.095949721 
 8760000  0.094163709 
 8770000  0.099622637 
 8780000   0.10103469 
 8790000   0.10104229 
 8800000   0.10030472 
 8810000  0.095178841 
 8820000   0.10291471 
 8830000   0.10263962 
 8840000  0.094815855 
 8850000   0.08579426 
 8860000   0.10750107 
 8870000  0.092193508 
 8880000   0.09449251 
 8890000  0.093088663 
 8900000  0.097933548 
 8910000  0.098707636 
 8920000   0.10216054 
 8930000  0.094039066 
 8940000   0.11594235 
 8950000   0.10369826 
 8960000   0.10034347 
 8970000   0.11288619 
 8980000  0.098635768 
 8990000   0.10525462 
 9000000  0.086283028 
 9010000  0.096226957 
 9020000   0.10417772 
 9030000   0.10273459 
 9040000  0.094068978 
 9050000   0.10911714 
 9060000   0.10503933 
 9070000   0.10176472 
 9080000  0.089260251 
 9090000  0.099700796 
 9100000   0.10117225 
 9110000   0.10733753 
 9120000  0.099014182 
 9130000  0.090314935 
 9140000   0.10149236 
 9150000  0.099045085 
 9160000   0.10060863 
 9170000   0.10014324 
 9180000   0.12098295 
 9190000   0.10602833 
 9200000  0.097033096 
 9210000   0.10525768 
 9220000   0.09458512 
 9230000  0.094265947 
 9240000   0.10226606 
 9250000  0.097567467 
 9260000   0.11170216 
 9270000   0.10160987 
 9280000   0.10749229 
 9290000  0.099480756 
 9300000   0.10194441 
 9310000   0.11780682 
 9320000   0.10606821 
 9330000   0.10607228 
 9340000  0.095701426 
 9350000  0.089603875 
 9360000  0.094468163 
 9370000   0.09434448 
 9380000  0.095639707 
 9390000   0.11491346 
 9400000   0.11041046 
 9410000    0.1042795 
 9420000  0.097809838 
 9430000  0.094329432 
 9440000   0.10048558 
 9450000   0.10268304 
 9460000   0.10387768 
 9470000   0.11232953 
 9480000  0.098035791 
 9490000   0.10454093 
 9500000  0.087276574 
 9510000   0.10871295 
 9520000  0.097784438 
 9530000  0.091662741 
 9540000   0.10220946 
 9550000  0.093917566 
 9560000   0.10528733 
 9570000   0.10248721 
 9580000  0.096009454 
 9590000  0.092438579 
 9600000  0.090597531 
 9610000  0.091858037 
 9620000  0.095348963 
 9630000  0.097409623 
 9640000  0.094683147 
 9650000  0.091211466 
 9660000  0.095380592 
 9670000  0.097766283 
 9680000   0.10917041 
 9690000   0.11141038 
 9700000   0.10910554 
 9710000  0.098602125 
 9720000   0.11257237 
 9730000   0.09852562 
 9740000  0.098342816 
 9750000  0.093245182 
 9760000   0.10359258 
 9770000   0.10417499 
 9780000  0.094314378 
 9790000   0.10393633 
 9800000   0.10098201 
 9810000  0.095832219 
 9820000   0.10622373 
 9830000   0.10377634 
 9840000   0.11459227 
 9850000   0.11444469 
 9860000   0.11773952 
 9870000    0.0963713 
 9880000  0.097453003 
 9890000   0.08660273 
 9900000  0.093778809 
 9910000  0.088601663 
 9920000  0.090750863 
 9930000  0.084133253 
 9940000   0.10546374 
 9950000    0.1021353 
 9960000   0.11431336 
 9970000   0.10782036 
 9980000  0.084396245 
 9990000   0.10528106 
10000000  0.096317079 
10010000   0.10161973 
10020000   0.10173055 
10030000  0.097242164 
10040000  0.093224992 
10050000   0.10878218 
10060000   0.10378902 
10070000   0.10880974 
10080000   0.10986526 
10090000   0.10609832 
10100000  0.092292872 
10110000  0.097784156 
10120000   0.10011132 
10130000  0.097118482 
10140000   0.10900856 
10150000   0.10538945 
10160000   0.10520749 
10170000  0.091046747 
10180000   0.10294047 
10190000   0.11964427 
10200000   0.10375768 
10210000   0.10347418 
10220000  0.097498136 
10230000   0.10493908 
10240000  0.095807952 
10250000  0.095006218 
10260000  0.096299677 
10270000   0.10838138 
10280000  0.096197265 
10290000   0.09278362 
10300000  0.099719701 
10310000   0.10695748 
10320000  0.092227524 
10330000  0.097486531 
10340000   0.10256914 
10350000   0.10148836 
10360000   0.10077794 
10370000  0.091210781 
10380000   0.10653592 
10390000   0.11103039 
10400000   0.10617339 
10410000  0.089824173 
10420000   0.09795761 
10430000   0.10452085 
10440000   0.10101165 
10450000   0.10368222 
10460000  0.090013914 
10470000  0.099157445 
10480000   0.10700557 
10490000  0.092080392 
10500000   0.10233328 
10510000   0.10651217 
10520000  0.094581319 
10530000   0.09405021 
10540000   0.10049162 
10550000   0.10879696 
10560000  0.099393565 
10570000   0.10510576 
10580000   0.10887094 
10590000  0.095787805 
10600000  0.092547282 
10610000  0.086215949 
10620000  0.092898965 
10630000  0.098220019 
10640000    0.1061074 
10650000  0.098324767 
10660000  0.093720019 
10670000   0.10570148 
10680000  0.095369482 
10690000  0.097581965 
10700000   0.10176864 
10710000   0.10249404 
10720000    0.0902345 
10730000  0.092769954 
10740000   0.10405403 
10750000  0.098438109 
10760000   0.10543614 
10770000  0.098111908 
10780000   0.10290288 
10790000  0.097157346 
10800000  0.094277773 
10810000   0.10244494 
10820000   0.10096302 
10830000  0.094113417 
10840000  0.091980921 
10850000  0.097412038 
10860000  0.093033737 
10870000  0.092771733 
10880000  0.094917494 
10890000   0.10391354 
10900000   0.10667107 
10910000    0.1088498 
10920000   0.10069056 
10930000  0.099911264 
10940000  0.096470638 
10950000  0.094674092 
10960000  0.098598767 
10970000   0.10609015 
10980000  0.099321868 
10990000   0.10997973 
11000000   0.11095537 
11010000   0.10864148 
11020000  0.095350297 
11030000   0.10120374 
11040000   0.09601813 
11050000   0.09978193 
11060000   0.09893905 
11070000    0.1055961 
11080000   0.10151008 
11090000   0.10721174 
11100000  0.094098107 
11110000  0.087217502 
11120000  0.099432574 
11130000   0.10078243 
11140000   0.10567674 
11150000  0.088272492 
11160000   0.10709103 
11170000   0.11224363 
11180000  0.095819128 
11190000  0.095019177 
11200000   0.10526355 
11210000   0.10504906 
11220000   0.10671666 
11230000    0.0955151 
11240000  0.096033129 
11250000   0.10360823 
11260000   0.10700124 
11270000  0.097717602 
11280000  0.098155502 
11290000   0.11697573 
11300000    0.1107468 
11310000    0.1023577 
11320000   0.10406318 
11330000   0.10089265 
11340000   0.10576811 
11350000   0.10397959 
11360000  0.098160925 
11370000   0.10125106 
11380000  0.098583572 
11390000  0.097155257 
11400000  0.092082104 
11410000   0.10532035 
11420000     0.099272 
11430000   0.11547284 
11440000  0.093668464 
11450000   0.10054016 
11460000  0.096641322 
11470000  0.097354044 
11480000   0.10644605 
11490000   0.10230121 
11500000  0.095189639 
11510000     0.112459 
11520000  0.092862099 
11530000  0.086882873 
11540000  0.091164696 
11550000    0.0957218 
11560000   0.11137504 
11570000   0.10992169 
11580000  0.087204587 
11590000  0.096520753 
11600000   0.10574172 
11610000    0.1124275 
11620000   0.10147645 
11630000  0.091109109 
11640000   0.10270082 
11650000  0.095700029 
11660000   0.10373967 
11670000   0.10339328 
11680000   0.10770632 
11690000   0.10694149 
11700000   0.10078681 
11710000  0.097456057 
11720000   0.10390018 
11730000   0.10370196 
11740000  0.088227701 
11750000  0.097431823 
11760000   0.10790784 
11770000  0.096803082 
11780000  0.084483443 
11790000   0.08526054 
11800000  0.095817079 
11810000   0.10152004 
11820000  0.090154013 
11830000  0.091403176 
11840000  0.096832186 
11850000   0.09595113 
11860000   0.10665635 
11870000  0.092161716 
11880000   0.10447731 
11890000   0.11416371 
11900000   0.08702837 
11910000   0.10961646 
11920000   0.10206559 
11930000  0.094433388 
11940000  0.085496247 
11950000  0.095884361 
11960000   0.09465819 
11970000  0.092042737 
11980000    0.1108479 
11990000   0.10359364 
12000000   0.10160928 
12010000  0.087751522 
12020000  0.094467391 
12030000  0.096020428 
12040000  0.096124053 
12050000  0.096802967 
12060000  0.094156481 
12070000   0.10941949 
12080000  0.094971727 
12090000   0.10858242 
12100000  0.098517591 
12110000   0.10752246 
12120000   0.10302636 
12130000  0.089902341 
12140000   0.10543031 
12150000   0.10065709 
12160000    0.1119433 
12170000    0.1050523 
12180000  0.090726577 
12190000  0.099372262 
12200000  0.095387541 
12210000   0.10445808 
12220000   0.10343934 
12230000   0.10025839 
12240000  0.096805496 
12250000   0.10111005 
12260000   0.10118899 
12270000    0.1026829 
12280000    0.1015772 
12290000  0.092024191 
12300000   0.10901417 
12310000   0.10640626 
12320000  0.096179278 
12330000   0.09797792 
12340000   0.10922455 
12350000   0.10082339 
12360000   0.10528151 
12370000   0.10370499 
12380000  0.093661354 
12390000   0.10237906 
12400000   0.11440486 
12410000  0.092587369 
12420000   0.10724051 
12430000  0.092509391 
12440000   0.10852238 
12450000   0.10814819 
12460000   0.10151418 
12470000  0.096060998 
12480000   0.10097815 
12490000  0.090029761 
12500000   0.10246946 
12510000  0.086128071 
12520000   0.11880256 
12530000  0.095142783 
12540000   0.10443836 
12550000   0.11672636 
12560000  0.094378404 
12570000   0.10649947 
12580000  0.098360198 
12590000   0.11511995 
12600000   0.10222628 
12610000   0.10332488 
12620000   0.11450074 
12630000  0.092847092 
12640000    0.1063134 
12650000  0.097088154 
12660000   0.10494488 
12670000  0.092127895 
12680000  0.099708923 
12690000  0.095243543 
12700000  0.099438465 
12710000  0.097909981 
12720000  0.096544826 
12730000  0.095278252 
12740000   0.10760041 
12750000   0.10173133 
12760000   0.10305994 
12770000   0.11380235 
12780000   0.11209221 
12790000  0.094557305 
12800000   0.10251021 
12810000  0.097246973 
12820000   0.11003363 
12830000   0.10833109 
12840000  0.099530009 
12850000   0.11311274 
12860000  0.093849101 
12870000  0.091020662 
12880000   0.10671472 
12890000   0.10736834 
12900000   0.10504295 
12910000  0.091850758 
12920000   0.10930604 
12930000   0.10385465 
12940000    0.1071133 
12950000   0.10975203 
12960000  0.098182361 
12970000   0.10169026 
12980000   0.10981194 
12990000  0.097821246 
13000000    0.1111544 
13010000   0.10146742 
13020000   0.10308891 
13030000  0.098684834 
13040000  0.096719848 
13050000  0.086140746 
13060000   0.09882845 
13070000   0.11477139 
13080000   0.09985153 
13090000   0.10296307 
13100000   0.10853696 
13110000   0.10863369 
13120000   0.10238088 
13130000  0.098310747 
13140000  0.099992526 
13150000   0.10435977 
13160000  0.099357428 
13170000    0.1027048 
13180000  0.094725095 
13190000  0.092942352 
13200000  0.088844507 
13210000   0.10550847 
13220000   0.11698205 
13230000   0.10380385 
13240000   0.09028865 
13250000  0.097272994 
13260000  0.096126457 
13270000    0.1061056 
13280000   0.10321495 
13290000   0.10375489 
13300000  0.087102854 
13310000   0.10213395 
13320000  0.085031286 
13330000   0.10788162 
13340000  0.099777864 
13350000  0.093927052 
13360000   0.10496276 
13370000  0.097511016 
13380000   0.10770758 
13390000   0.10672761 
13400000   0.10137635 
13410000   0.10772759 
13420000    0.1098575 
13430000   0.11311651 
13440000   0.10044666 
13450000   0.10532319 
13460000  0.093071652 
13470000    0.1117839 
13480000   0.10827212 
13490000  0.096243321 
13500000   0.09781407 
13510000   0.10320146 
13520000  0.095193627 
13530000   0.10794328 
13540000  0.097908215 
13550000  0.095437834 
13560000  0.096590163 
13570000   0.10114567 
13580000   0.10130263 
13590000   0.11557451 
13600000   0.10403135 
13610000   0.10165614 
13620000   0.10044824 
13630000  0.095090411 
13640000  0.092981557 
13650000  0.098670667 
13660000  0.090338039 
13670000   0.10261707 
13680000   0.11064648 
13690000    0.1048536 
13700000   0.11311045 
13710000    0.1030814 
13720000  0.097642277 
13730000  0.093946141 
13740000   0.10568974 
13750000   0.10858312 
13760000   0.10040893 
13770000   0.11588801 
13780000   0.10510158 
13790000   0.10849554 
13800000   0.10747002 
13810000   0.10817931 
13820000   0.10003434 
13830000    0.1129858 
13840000  0.098937371 
13850000   0.10164228 
13860000  0.085774975 
13870000  0.093385366 
13880000  0.092425781 
13890000    0.1067185 
13900000   0.11651292 
13910000   0.10035596 
13920000  0.091153025 
13930000  0.093361314 
13940000  0.093708196 
13950000     0.112619 
13960000  0.095957933 
13970000   0.09363425 
13980000   0.10266847 
13990000  0.094132822 
14000000   0.10735728 
14010000   0.10034956 
14020000   0.10794725 
14030000  0.090396588 
14040000  0.094771071 
14050000   0.10434732 
14060000   0.10924542 
14070000  0.098159335 
14080000  0.089178638 
14090000   0.10044105 
14100000  0.089570414 
14110000   0.10255353 
14120000   0.11552753 
14130000   0.10093332 
14140000    0.1001316 
14150000   0.10570853 
14160000  0.094950267 
14170000   0.10424811 
14180000   0.08771464 
14190000  0.098942025 
14200000  0.096766344 
14210000  0.092662184 
14220000   0.10213291 
14230000   0.10857576 
14240000  0.093137599 
14250000  0.094396723 
14260000  0.096600019 
14270000   0.12020389 
14280000   0.11244764 
14290000   0.10158919 
14300000  0.099785484 
14310000   0.10776701 
14320000  0.092003851 
14330000  0.091207763 
14340000  0.082892421 
14350000    0.1001633 
14360000   0.10747554 
14370000  0.092272536 
14380000   0.10594516 
14390000   0.09868243 
14400000    0.1021505 
14410000   0.10050894 
14420000   0.09892179 
14430000  0.096599306 
14440000   0.10998274 
14450000  0.093432767 
14460000  0.093661965 
14470000  0.090342777 
14480000   0.10586949 
14490000   0.11381627 
14500000  0.090638006 
14510000  0.092495051 
14520000  0.082511951 
14530000    0.1143481 
14540000   0.10725406 
14550000   0.10537401 
14560000  0.090739874 
14570000  0.098311359 
14580000   0.10421822 
14590000    0.1075959 
14600000   0.10457838 
14610000   0.10989492 
14620000   0.10054459 
14630000  0.088119096 
14640000   0.09689538 
14650000    0.1020916 
14660000    0.1005032 
14670000   0.10068784 
14680000  0.094582023 
14690000   0.10393221 
14700000   0.10630378 
14710000   0.10360692 
14720000   0.10479044 
14730000   0.10734176 
14740000   0.08783175 
14750000   0.09975173 
14760000   0.10900256 
14770000  0.098645544 
14780000  0.090556463 
14790000  0.092713892 
14800000   0.10184619 
14810000   0.10271144 
14820000    0.1061407 
14830000  0.096394136 
14840000   0.10273693 
14850000   0.10353716 
14860000   0.11130666 
14870000   0.10105251 
14880000  0.094077136 
14890000    0.1041541 
14900000  0.096025978 
14910000   0.10426414 
14920000   0.10979824 
14930000  0.097542738 
14940000  0.097992071 
14950000   0.10977926 
14960000   0.10863345 
14970000   0.10021336 
14980000  0.093972066 
14990000  0.096934618 
15000000   0.11037755 
15010000  0.093126708 
15020000  0.099564681 
15030000   0.10589047 
15040000   0.09809523 
15050000  0.097122612 
15060000   0.11485644 
15070000  0.098193377 
15080000  0.098418697 
15090000   0.10107305 
15100000   0.10129379 
15110000   0.10842827 
15120000   0.10544191 
15130000  0.093681663 
15140000  0.092116533 
15150000   0.10193324 
15160000   0.10488923 
15170000  0.093107649 
15180000  0.096518693 
15190000  0.095495226 
15200000  0.099661608 
15210000   0.12104364 
15220000   0.11003103 
15230000  0.094325025 
15240000  0.095716518 
15250000  0.091089433 
15260000  0.089904414 
15270000   0.11142305 
15280000   0.10369204 
15290000    0.1000649 
15300000   0.11352103 
15310000   0.10089374 
15320000   0.10244219 
15330000  0.096790276 
15340000  0.083453779 
15350000  0.097668344 
15360000   0.10068249 
15370000   0.10113285 
15380000   0.11802058 
15390000   0.11321972 
15400000   0.09273582 
15410000   0.11014483 
15420000  0.098770916 
15430000   0.10053027 
15440000  0.089764093 
15450000  0.095142758 
15460000   0.10532832 
15470000   0.10743109 
15480000  0.098134061 
15490000  0.090711157 
15500000   0.10657061 
15510000  0.089494851 
15520000   0.10118215 
15530000  0.099930383 
15540000  0.093143251 
15550000  0.095031617 
15560000   0.10760839 
15570000   0.10952343 
15580000  0.095267751 
15590000  0.093845408 
15600000   0.11192968 
15610000   0.10946855 
15620000    0.1037824 
15630000   0.10708042 
15640000  0.086550497 
15650000  0.098578083 
15660000  0.098817638 
15670000   0.10682406 
15680000  0.098932959 
15690000   0.10054702 
15700000   0.10318881 
15710000  0.097537583 
15720000   0.10673594 
15730000   0.10099596 
15740000  0.092012203 
15750000   0.10221564 
15760000      0.10056 
15770000  0.096222801 
15780000   0.10830041 
15790000  0.099690126 
15800000  0.089046684 
15810000   0.10163746 
15820000    0.1126549 
15830000   0.10545079 
15840000  0.092715049 
15850000   0.10804794 
15860000   0.10719498 
15870000   0.11548929 
15880000   0.09999344 
15890000  0.087943045 
15900000  0.086688782 
15910000  0.096680663 
15920000   0.10324558 
15930000  0.089467581 
15940000   0.10639224 
15950000   0.11426947 
15960000  0.094909661 
15970000  0.099617196 
15980000  0.093960116 
15990000   0.10325437 
16000000   0.10021698 
16010000   0.10525211 
16020000  0.095874707 
16030000   0.10070826 
16040000   0.10226737 
16050000  0.098309478 
16060000  0.094287478 
16070000  0.091318647 
16080000  0.094551955 
16090000  0.099875087 
16100000  0.089282986 
16110000   0.10707359 
16120000  0.093594442 
16130000   0.10178248 
16140000  0.095179016 
16150000   0.10309252 
16160000   0.11211876 
16170000   0.09253044 
16180000  0.092733689 
16190000   0.10846044 
16200000   0.10046841 
16210000   0.10014053 
16220000  0.098353341 
16230000   0.11009317 
16240000   0.10520579 
16250000   0.11581374 
16260000   0.10502725 
16270000   0.09484022 
16280000  0.096788173 
16290000  0.095023165 
16300000   0.09865039 
16310000    0.1014468 
16320000  0.096977415 
16330000   0.10032908 
16340000   0.11043971 
16350000  0.098677534 
16360000  0.095002126 
16370000   0.10238841 
16380000   0.10921258 
16390000  0.082039076 
16400000   0.10074397 
16410000  0.095832218 
16420000  0.091081048 
16430000   0.10338886 
16440000  0.098977273 
16450000  0.089268573 
16460000   0.10538654 
16470000   0.10203253 
16480000  0.094080229 
16490000  0.098538406 
16500000   0.10405581 
16510000   0.10659303 
16520000   0.10010947 
16530000   0.10491666 
16540000  0.099056944 
16550000  0.092506948 
16560000   0.10244231 
16570000  0.093252909 
16580000   0.10120105 
16590000  0.089557337 
16600000  0.094388623 
16610000  0.097989913 
16620000   0.11084815 
16630000  0.094125657 
16640000  0.093709853 
16650000   0.09855653 
16660000   0.10271857 
16670000  0.091329428 
16680000   0.09370234 
16690000   0.10961463 
16700000   0.08642578 
16710000  0.095485395 
16720000  0.099496871 
16730000  0.095285469 
16740000   0.10434802 
16750000  0.092369686 
16760000  0.091841128 
16770000   0.10344159 
16780000  0.090187451 
16790000   0.10297514 
16800000   0.10830652 
16810000  0.094339309 
16820000  0.096148313 
16830000    0.1073881 
16840000   0.10082195 
16850000   0.10687101 
16860000  0.097848841 
16870000   0.10146959 
16880000  0.096801249 
16890000   0.10753107 
16900000   0.10815127 
16910000  0.090744511 
16920000   0.10511781 
16930000   0.11353566 
16940000  0.098532253 
16950000   0.10599942 
16960000   0.11461425 
16970000  0.097699967 
16980000  0.094460852 
16990000   0.10547799 
17000000   0.10553921 
17010000   0.10261501 
17020000  0.092968031 
17030000   0.11364199 
17040000   0.11073382 
17050000   0.11272274 
17060000  0.097738916 
17070000  0.087602574 
17080000   0.10394141 
17090000  0.092462645 
17100000   0.10981654 
17110000  0.094143395 
17120000   0.10858547 
17130000   0.10133715 
17140000   0.10254381 
17150000  0.099308323 
17160000  0.095047967 
17170000  0.097658183 
17180000   0.10872207 
17190000  0.098403153 
17200000    0.1063533 
17210000   0.10443573 
17220000   0.10173592 
17230000    0.1182593 
17240000  0.096259733 
17250000  0.093051377 
17260000   0.09524192 
17270000  0.097531385 
17280000  0.098389808 
17290000  0.095279108 
17300000   0.10279786 
17310000  0.091619302 
17320000    0.1130552 
17330000   0.10301387 
17340000    0.1031921 
17350000  0.093008717 
17360000  0.089801191 
17370000  0.093840436 
17380000   0.10112411 
17390000  0.095287922 
17400000  0.092540168 
17410000   0.10201873 
17420000   0.09964777 
17430000  0.094799086 
17440000  0.097070219 
17450000  0.098551884 
17460000  0.093270084 
17470000  0.093963608 
17480000  0.095124731 
17490000  0.091381479 
17500000  0.092727337 
17510000   0.11086829 
17520000   0.11209823 
17530000   0.10802164 
17540000   0.11005168 
17550000    0.1038546 
17560000    0.1023741 
17570000  0.090104744 
17580000  0.099721441 
17590000  0.096835327 
17600000  0.093227712 
17610000   0.11115861 
17620000   0.10191482 
17630000   0.10158006 
17640000   0.10094374 
17650000  0.097141668 
17660000  0.093375795 
17670000   0.10784959 
17680000  0.095424598 
17690000  0.092130892 
17700000   0.10538104 
17710000  0.098149976 
17720000  0.097413453 
17730000   0.10093548 
17740000   0.09732129 
17750000    0.1094311 
17760000   0.10173947 
17770000  0.097941725 
17780000   0.10324924 
17790000  0.092033491 
17800000  0.099676652 
17810000  0.097472228 
17820000   0.09832027 
17830000  0.085930052 
17840000  0.099113564 
17850000  0.099582903 
17860000   0.10227687 
17870000  0.095573795 
17880000   0.11020468 
17890000   0.09577482 
17900000  0.087148736 
17910000   0.10403809 
17920000   0.10104837 
17930000   0.10125939 
17940000   0.10811432 
17950000  0.094084077 
17960000  0.098878654 
17970000   0.11676981 
17980000  0.098500308 
17990000   0.09920558 
18000000  0.098595981 
18010000  0.096324471 
18020000   0.10866635 
18030000   0.10243329 
18040000   0.10031972 
18050000   0.10482427 
18060000   0.10409617 
18070000   0.10440052 
18080000   0.10588806 
18090000   0.10133598 
18100000  0.097748815 
18110000   0.10486404 
18120000  0.095864467 
18130000   0.10436574 
18140000   0.10396151 
18150000   0.10215674 
18160000   0.11235747 
18170000   0.09950025 
18180000  0.089362406 
18190000   0.09700455 
18200000   0.10755203 
18210000  0.097876347 
18220000  0.096514635 
18230000   0.10682509 
18240000  0.097445327 
18250000  0.095503339 
18260000  0.097073834 
18270000   0.10383746 
18280000   0.10156181 
18290000   0.10632241 
18300000   0.11156406 
18310000  0.092719273 
18320000  0.093535475 
18330000  0.085953564 
18340000   0.09599861 
18350000  0.093822957 
18360000   0.10412732 
18370000  0.087574994 
18380000  0.099074965 
18390000   0.10368665 
18400000   0.10333889 
18410000  0.095735506 
18420000   0.10585937 
18430000   0.10381389 
18440000  0.097037996 
18450000  0.094356777 
18460000  0.087664992 
18470000  0.097122779 
18480000  0.098127381 
18490000  0.093418127 
18500000   0.10613847 
18510000  0.088499948 
18520000   0.10121716 
18530000  0.099161905 
18540000   0.10455421 
18550000   0.10811893 
18560000   0.11023921 
18570000   0.10001058 
18580000    0.1117244 
18590000  0.097546237 
18600000   0.10175852 
18610000  0.093221117 
18620000   0.11635839 
18630000    0.1055651 
18640000  0.091707137 
18650000   0.10090962 
18660000  0.099056054 
18670000   0.10228151 
18680000  0.099339303 
18690000   0.09359904 
18700000   0.10239627 
18710000   0.10247927 
18720000   0.10457781 
18730000     0.106158 
18740000   0.11012636 
18750000   0.10762602 
18760000   0.10154524 
18770000  0.095093314 
18780000   0.10049866 
18790000  0.091932843 
18800000  0.099547803 
18810000   0.10982843 
18820000   0.10562813 
18830000   0.10035601 
18840000  0.097851519 
18850000  0.090564145 
18860000   0.10410284 
18870000    0.1114333 
18880000   0.10561588 
18890000  0.093780354 
18900000  0.097898358 
18910000   0.10192722 
18920000   0.10765104 
18930000   0.10147301 
18940000  0.096810907 
18950000  0.099383912 
18960000   0.10991969 
18970000   0.11131012 
18980000   0.10845159 
18990000   0.10590159 
19000000  0.096734093 
19010000   0.10054978 
19020000   0.10546067 
19030000  0.099721575 
19040000   0.10292634 
19050000   0.10954618 
19060000   0.10291178 
19070000   0.10298982 
19080000   0.10132835 
19090000  0.091784599 
19100000   0.10407811 
19110000   0.10684547 
19120000  0.090645693 
19130000   0.09755716 
19140000   0.10820931 
19150000   0.10886991 
19160000   0.10249607 
19170000   0.11514306 
19180000   0.09876246 
19190000  0.090448379 
19200000   0.10212423 
19210000  0.091360883 
19220000   0.10621127 
19230000   0.10966772 
19240000   0.10231039 
19250000   0.10632059 
19260000   0.11363442 
19270000   0.11177021 
19280000   0.10018017 
19290000    0.1028163 
19300000   0.10609919 
19310000   0.10070081 
19320000    0.1041052 
19330000  0.095022596 
19340000  0.091509379 
19350000   0.10338932 
19360000   0.10225657 
19370000  0.099772436 
19380000   0.10107648 
19390000  0.098518689 
19400000  0.083947414 
19410000   0.10560069 
19420000  0.087203653 
19430000   0.10133884 
19440000  0.093585925 
19450000    0.1118936 
19460000  0.098012712 
19470000  0.094936446 
19480000   0.11188198 
19490000    0.1080867 
19500000   0.10729918 
19510000  0.096636601 
19520000   0.11595842 
19530000   0.10152788 
19540000  0.098067989 
19550000  0.097388234 
19560000   0.10055112 
19570000  0.089252978 
19580000  0.092816431 
19590000  0.093352931 
19600000   0.10524892 
19610000  0.097592896 
19620000   0.10718456 
19630000    0.1034036 
19640000   0.10832315 
19650000   0.10419671 
19660000  0.081809272 
19670000  0.099415089 
19680000   0.10199713 
19690000   0.10005789 
19700000   0.10521589 
19710000   0.11743206 
19720000  0.083487578 
19730000  0.094078599 
19740000   0.08774999 
19750000  0.082936094 
19760000   0.10877261 
19770000   0.10522114 
19780000  0.099619352 
19790000  0.095346024 
19800000  0.092532086 
19810000  0.088688766 
19820000  0.096976802 
19830000  0.098968662 
19840000   0.10720585 
19850000  0.098435918 
19860000   0.10089131 
19870000   0.10688744 
19880000  0.097452464 
19890000  0.086817997 
19900000  0.093929974 
19910000  0.094149865 
19920000  0.097065028 
19930000  0.092561071 
19940000  0.096925259 
19950000   0.11389653 
19960000   0.10224468 
19970000  0.091873915 
19980000   0.08997748 
19990000   0.10268006 
20000000  0.098869971 
20010000  0.092564268 
20020000  0.098016465 
20030000  0.092443051 
20040000   0.10871103 
20050000   0.11362916 
20060000  0.081683429 
20070000   0.10100234 
20080000   0.10435263 
20090000   0.10335611 
20100000      0.10881 
20110000   0.11564288 
20120000  0.093830724 
20130000   0.11992368 
20140000   0.10534508 
20150000  0.088024295 
20160000  0.095211927 
20170000    0.1011661 
20180000  0.095552409 
20190000  0.094623448 
20200000    0.1034429 
20210000   0.10421854 
20220000  0.091554569 
20230000   0.11026992 
20240000  0.091990943 
20250000  0.092326958 
20260000   0.10614004 
20270000   0.10815628 
20280000   0.11673762 
20290000  0.095411039 
20300000   0.10390251 
20310000  0.099239882 
20320000  0.097503034 
20330000   0.10339836 
20340000  0.095887146 
20350000  0.099693471 
20360000   0.10398995 
20370000  0.097346175 
20380000   0.10289166 
20390000   0.10336617 
20400000   0.10603102 
20410000   0.10065808 
20420000   0.10180036 
20430000  0.095747295 
20440000  0.095512316 
20450000  0.089138479 
20460000   0.10162147 
20470000  0.098193885 
20480000   0.10145023 
20490000   0.10913008 
20500000   0.11366427 
20510000   0.10852071 
20520000   0.11142935 
20530000   0.10123462 
20540000   0.10078693 
20550000   0.11906653 
20560000   0.10660589 
20570000   0.10183609 
20580000   0.10525053 
20590000   0.09966709 
20600000  0.097180441 
20610000  0.097312856 
20620000  0.094576633 
20630000   0.10220737 
20640000    0.1085895 
20650000   0.10412597 
20660000  0.083919343 
20670000   0.10051361 
20680000   0.10720376 
20690000  0.099755616 
20700000  0.093658197 
20710000  0.099109429 
20720000   0.10380808 
20730000  0.096351962 
20740000  0.094056465 
20750000  0.099659123 
20760000   0.10915981 
20770000   0.11362762 
20780000  0.097947326 
20790000  0.098764916 
20800000   0.11442458 
20810000  0.095938189 
20820000  0.099476741 
20830000   0.10232184 
20840000   0.11172176 
20850000  0.090617141 
20860000   0.10233359 
20870000    0.0910864 
20880000   0.09291714 
20890000  0.096246095 
20900000   0.10045116 
20910000  0.097793369 
20920000  0.098218202 
20930000   0.11067719 
20940000   0.10431877 
20950000  0.091123093 
20960000  0.095872694 
20970000  0.098214092 
20980000   0.10502589 
20990000  0.095910973 
21000000  0.098023444 
21010000   0.10037067 
21020000   0.10410404 
21030000  0.095883029 
21040000   0.10035106 
21050000   0.10355457 
21060000  0.092735802 
21070000   0.10097879 
21080000  0.096237173 
21090000   0.09802766 
21100000   0.10773742 
21110000  0.099984271 
21120000  0.098778887 
21130000   0.11033947 
21140000   0.10311234 
21150000   0.10066059 
21160000   0.10641709 
21170000   0.10854117 
21180000  0.091564313 
21190000   0.10211887 
21200000  0.090211572 
21210000   0.10318245 
21220000   0.10060669 
21230000   0.10329545 
21240000   0.10861474 
21250000  0.088617207 
21260000   0.11835196 
21270000   0.08766845 
21280000   0.10520463 
21290000  0.099641304 
21300000   0.10326433 
21310000   0.10816236 
21320000   0.11372514 
21330000  0.097990701 
21340000   0.10885629 
21350000   0.10145631 
21360000   0.10817244 
21370000   0.09281508 
21380000   0.10143802 
21390000  0.095530967 
21400000  0.089745901 
21410000    0.1022184 
21420000     0.101126 
21430000  0.088717909 
21440000   0.10103597 
21450000   0.10058942 
21460000  0.096500357 
21470000   0.09200387 
21480000   0.09701886 
21490000  0.094049231 
21500000   0.10801119 
21510000  0.090140625 
21520000   0.10883126 
21530000   0.10004545 
21540000   0.11092415 
21550000   0.10195384 
21560000   0.09391955 
21570000  0.093685613 
21580000  0.097793632 
21590000   0.10937785 
21600000   0.10216686 
21610000   0.10875999 
21620000   0.10831957 
21630000   0.10152284 
21640000   0.10032993 
21650000   0.11164288 
21660000   0.10174245 
21670000  0.095933689 
21680000   0.10132938 
21690000  0.085357374 
21700000  0.094073397 
21710000   0.10480478 
21720000  0.090781557 
21730000   0.11057672 
21740000  0.095784355 
21750000   0.10269082 
21760000   0.10100661 
21770000   0.10380144 
21780000   0.10768647 
21790000  0.099719336 
21800000   0.10488132 
21810000  0.087541811 
21820000   0.10159652 
21830000   0.11546536 
21840000   0.11489676 
21850000  0.097851572 
21860000  0.092750425 
21870000  0.096072923 
21880000   0.10253537 
21890000   0.11443611 
21900000   0.10538781 
21910000   0.10651514 
21920000  0.095367681 
21930000  0.092622737 
21940000   0.10896007 
21950000   0.09588908 
21960000  0.098841283 
21970000    0.1015344 
21980000   0.10204934 
21990000  0.092243455 
22000000   0.11440667 
22010000    0.1003116 
22020000   0.10091764 
22030000    0.1058681 
22040000   0.10612953 
22050000  0.097124021 
22060000   0.10284849 
22070000   0.10180568 
22080000  0.097152413 
22090000   0.10698736 
22100000   0.10266677 
22110000  0.095813013 
22120000   0.11665782 
22130000   0.10063561 
22140000   0.11050945 
22150000   0.10584704 
22160000   0.11388591 
22170000    0.1042488 
22180000   0.10173503 
22190000   0.09240179 
22200000  0.096212522 
22210000    0.1064053 
22220000   0.10476989 
22230000  0.092921768 
22240000  0.095849732 
22250000   0.10214501 
22260000   0.10707041 
22270000   0.10204297 
22280000  0.097506657 
22290000   0.10451478 
22300000   0.10468256 
22310000    0.1138493 
22320000  0.098489931 
22330000   0.09865509 
22340000   0.09947126 
22350000  0.094318441 
22360000   0.10976453 
22370000  0.094429208 
22380000  0.094773654 
22390000  0.097372916 
22400000  0.096239055 
22410000   0.10841116 
22420000   0.10505325 
22430000  0.091196579 
22440000   0.10332435 
22450000   0.10726445 
22460000   0.10537298 
22470000   0.10644699 
22480000  0.091386146 
22490000  0.096190343 
22500000  0.096519593 
22510000  0.096362159 
22520000   0.10551285 
22530000  0.082058465 
22540000   0.10094298 
22550000   0.10990238 
22560000   0.10521024 
22570000  0.088632716 
22580000   0.09871672 
22590000  0.091023433 
22600000   0.10093289 
22610000  0.091617803 
22620000  0.088942445 
22630000   0.10670548 
22640000   0.10471561 
22650000  0.094928868 
22660000   0.11167894 
22670000   0.10002417 
22680000   0.10298673 
22690000   0.10556869 
22700000  0.097157541 
22710000   0.11086858 
22720000  0.095509555 
22730000   0.10408511 
22740000   0.10375297 
22750000   0.10189949 
22760000  0.091972903 
22770000    0.1033341 
22780000  0.099162638 
22790000   0.10269554 
22800000  0.096178673 
22810000  0.099765994 
22820000   0.10497973 
22830000  0.092019779 
22840000  0.096247553 
22850000   0.10203746 
22860000   0.10168396 
22870000   0.10332294 
22880000   0.11037346 
22890000  0.084520608 
22900000  0.091927871 
22910000   0.09739855 
22920000  0.095011578 
22930000   0.10533165 
22940000   0.10645087 
22950000   0.10570088 
22960000  0.082034048 
22970000   0.10781366 
22980000   0.10473052 
22990000  0.090828067 
23000000   0.11178716 
23010000   0.10944033 
23020000    0.1022676 
23030000   0.11004847 
23040000  0.092601223 
23050000   0.10272093 
23060000   0.11526931 
23070000   0.11163839 
23080000   0.10819345 
23090000   0.09563462 
23100000  0.099328594 
23110000   0.10114625 
23120000  0.097026164 
23130000    0.0960059 
23140000  0.099108698 
23150000   0.10079063 
23160000   0.10521363 
23170000   0.10305163 
23180000   0.10566117 
23190000   0.10654512 
23200000   0.10305458 
23210000   0.09783623 
23220000   0.11413115 
23230000  0.088314654 
23240000   0.10088928 
23250000   0.11471129 
23260000   0.09361521 
23270000   0.10064889 
23280000  0.096232437 
23290000    0.1036584 
23300000  0.090105054 
23310000   0.10521129 
23320000  0.088539855 
23330000   0.10094918 
23340000  0.087489957 
23350000    0.1034533 
23360000  0.092081352 
23370000  0.094209948 
23380000  0.096189683 
23390000   0.11476439 
23400000   0.10094365 
23410000   0.10678406 
23420000   0.11066276 
23430000   0.08828875 
23440000     0.103792 
23450000   0.11904013 
23460000   0.10365546 
23470000  0.099770671 
23480000   0.10869193 
23490000   0.10407325 
23500000  0.097600128 
23510000  0.096226154 
23520000   0.10250123 
23530000   0.10307982 
23540000  0.099030375 
23550000  0.094893165 
23560000   0.10075372 
23570000    0.1001226 
23580000   0.10344284 
23590000  0.093727697 
23600000  0.098191296 
23610000   0.10721795 
23620000    0.0875175 
23630000  0.098866264 
23640000  0.097237082 
23650000   0.09477699 
23660000   0.10154549 
23670000  0.093584042 
23680000   0.10772551 
23690000   0.11100647 
23700000   0.12567135 
23710000  0.094384133 
23720000   0.10215265 
23730000   0.10840035 
23740000   0.10228025 
23750000  0.099385785 
23760000  0.094351311 
23770000   0.10895555 
23780000   0.09475179 
23790000   0.10891065 
23800000     0.110632 
23810000  0.083338431 
23820000  0.093964422 
23830000  0.092921332 
23840000   0.10579825 
23850000   0.11040459 
23860000  0.099077891 
23870000  0.092476283 
23880000   0.10140268 
23890000   0.09458819 
23900000  0.097588824 
23910000    0.1066169 
23920000  0.097405657 
23930000   0.11075347 
23940000  0.083850258 
23950000   0.10303936 
23960000  0.099168622 
23970000   0.10311306 
23980000  0.087490171 
23990000   0.09303049 
24000000   0.10576279 
24010000  0.092622705 
24020000    0.1006831 
24030000  0.089949039 
24040000   0.09678008 
24050000   0.10165899 
24060000   0.10675666 
24070000   0.10677676 
24080000  0.092895277 
24090000   0.10379096 
24100000    0.1099572 
24110000  0.091666424 
24120000  0.097877701 
24130000    0.0851006 
24140000  0.094440643 
24150000  0.086816493 
24160000  0.099692625 
24170000    0.1036228 
24180000   0.10132354 
24190000    0.1137549 
24200000  0.097462763 
24210000   0.11046171 
24220000   0.10064634 
24230000   0.10110745 
24240000   0.11135327 
24250000  0.098468055 
24260000   0.10562714 
24270000   0.10650157 
24280000  0.095033581 
24290000    0.1009117 
24300000   0.11119363 
24310000    0.1106349 
24320000  0.098395713 
24330000   0.10183756 
24340000   0.10427262 
24350000    0.1069513 
24360000  0.089245771 
24370000  0.097627196 
24380000   0.10464927 
24390000   0.10143987 
24400000  0.097497604 
24410000   0.10528465 
24420000  0.097414922 
24430000   0.11314724 
24440000  0.099453186 
24450000  0.083017731 
24460000   0.10241306 
24470000   0.10137347 
24480000    0.1066966 
24490000  0.095301675 
24500000  0.095681821 
24510000   0.10671082 
24520000   0.10777782 
24530000   0.10102401 
24540000    0.1091994 
24550000   0.10007295 
24560000    0.1006557 
24570000   0.10326638 
24580000  0.099398121 
24590000   0.10609069 
24600000   0.10052631 
24610000   0.10474697 
24620000   0.10351568 
24630000   0.11313434 
24640000   0.10369895 
24650000  0.094126261 
24660000   0.10003939 
24670000   0.10168307 
24680000  0.096259434 
24690000  0.095496948 
24700000   0.09685245 
24710000   0.10731697 
24720000   0.11015231 
24730000   0.10027221 
24740000  0.096860827 
24750000  0.099586708 
24760000   0.10183383 
24770000   0.10399093 
24780000  0.093655609 
24790000  0.088274313 
24800000  0.096331313 
24810000   0.10544225 
24820000   0.11816066 
24830000  0.095357738 
24840000  0.099968191 
24850000   0.09512116 
24860000   0.10138196 
24870000  0.088561141 
24880000    0.1144186 
24890000   0.10188646 
24900000   0.10960176 
24910000  0.092671452 
24920000  0.098402683 
24930000   0.10190945 
24940000   0.10730678 
24950000   0.09432128 
24960000  0.097720776 
24970000  0.095730634 
24980000   0.11216215 
24990000  0.098102134 
25000000  0.096118454 
25010000   0.10543701 
25020000   0.09794455 
25030000  0.091105488 
25040000   0.10182363 
25050000   0.10657704 
25060000   0.10556486 
25070000   0.10471665 
25080000  0.098809656 
25090000  0.090383329 
25100000   0.10261451 
25110000  0.090350739 
25120000   0.10667831 
25130000  0.098802956 
25140000   0.10452516 
25150000   0.10367754 
25160000  0.098566817 
25170000   0.10189744 
25180000   0.11537304 
25190000   0.10538667 
25200000   0.10555795 
25210000   0.11233606 
25220000   0.11506837 
25230000   0.10163057 
25240000   0.10665413 
25250000  0.099169147 
25260000   0.10015091 
25270000   0.10159524 
25280000   0.11683319 
25290000   0.10811649 
25300000   0.08658172 
25310000    0.1095212 
25320000   0.09994845 
25330000  0.096699201 
25340000   0.10083821 
25350000   0.10240388 
25360000  0.099241682 
25370000  0.097279908 
25380000   0.10519416 
25390000   0.10318849 
25400000  0.096372621 
25410000  0.097935092 
25420000   0.10084684 
25430000   0.10478792 
25440000  0.094675848 
25450000   0.10571963 
25460000   0.10652926 
25470000  0.091806047 
25480000   0.10671206 
25490000  0.086245461 
25500000   0.10221958 
25510000   0.10075975 
25520000  0.098655016 
25530000   0.10459597 
25540000   0.09500619 
25550000    0.1092127 
25560000    0.1069761 
25570000  0.098244668 
25580000  0.094768723 
25590000   0.10102621 
25600000    0.1035911 
25610000  0.089438428 
25620000  0.097668335 
25630000  0.097166651 
25640000   0.11033338 
25650000    0.1046995 
25660000   0.10195582 
25670000  0.088923496 
25680000   0.09692753 
25690000  0.092261148 
25700000  0.094779373 
25710000   0.10360158 
25720000  0.096367174 
25730000   0.10429973 
25740000   0.10109066 
25750000  0.095103007 
25760000   0.10029986 
25770000  0.096671449 
25780000   0.10089577 
25790000   0.10481892 
25800000  0.091772259 
25810000   0.10022311 
25820000  0.088758976 
25830000   0.10900632 
25840000   0.10358362 
25850000  0.099345312 
25860000   0.10053835 
25870000   0.10923314 
25880000   0.10150527 
25890000  0.090770941 
25900000  0.093870069 
25910000  0.097589029 
25920000  0.097174964 
25930000   0.11433369 
25940000   0.10165846 
25950000  0.091181425 
25960000    0.1126313 
25970000  0.096235769 
25980000  0.089843704 
25990000  0.092351298 
26000000  0.088413773 
26010000   0.10806574 
26020000   0.10274033 
26030000   0.10460568 
26040000  0.088457418 
26050000  0.093655912 
26060000   0.10013006 
26070000   0.10319751 
26080000   0.10211666 
26090000   0.09025823 
26100000   0.10686055 
26110000  0.087009785 
26120000   0.11031388 
26130000   0.10011256 
26140000  0.092372303 
26150000  0.099866361 
26160000  0.087652774 
26170000  0.096370567 
26180000   0.10679019 
26190000  0.092594693 
26200000   0.11846424 
26210000   0.11103768 
26220000   0.10062102 
26230000    0.1109903 
26240000  0.094537084 
26250000   0.10341109 
26260000  0.087907041 
26270000  0.091804697 
26280000  0.094546804 
26290000  0.093378293 
26300000  0.099986481 
26310000   0.11762057 
26320000   0.10799317 
26330000   0.10290179 
26340000   0.10250593 
26350000   0.11424232 
26360000    0.1036891 
26370000   0.10105823 
26380000   0.10288015 
26390000  0.097274207 
26400000   0.10529941 
26410000   0.10636333 
26420000   0.10522394 
26430000  0.095778191 
26440000  0.091554448 
26450000   0.10677073 
26460000   0.10943112 
26470000  0.093627242 
26480000   0.10289693 
26490000   0.08452287 
26500000  0.091027701 
26510000   0.10475556 
26520000  0.094405225 
26530000   0.10619663 
26540000   0.10628037 
26550000   0.10397797 
26560000    0.1063033 
26570000   0.10222771 
26580000  0.085304657 
26590000   0.09459247 
26600000   0.11139576 
26610000   0.10219111 
26620000  0.097841946 
26630000   0.08585557 
26640000   0.10649313 
26650000   0.11543604 
26660000   0.10113365 
26670000   0.10089231 
26680000   0.10582634 
26690000  0.098748038 
26700000   0.10295587 
26710000   0.10283585 
26720000  0.099171421 
26730000   0.10325892 
26740000   0.10203011 
26750000   0.10109832 
26760000   0.09096799 
26770000  0.096314939 
26780000    0.1045841 
26790000  0.097414933 
26800000   0.09678814 
26810000   0.10983951 
26820000   0.10799792 
26830000   0.10989519 
26840000  0.099422794 
26850000  0.095376001 
26860000   0.10481722 
26870000    0.1032386 
26880000   0.10320551 
26890000   0.11327877 
26900000   0.10359101 
26910000   0.09743008 
26920000  0.093769464 
26930000    0.1083462 
26940000  0.099448309 
26950000   0.10149778 
26960000   0.10609823 
26970000  0.091189406 
26980000   0.10264112 
26990000  0.096228647 
27000000   0.10555151 
27010000  0.098326592 
27020000   0.09911762 
27030000  0.095220994 
27040000   0.10240939 
27050000   0.10867144 
27060000  0.098187685 
27070000  0.094229973 
27080000   0.10053992 
27090000   0.10290043 
27100000  0.093970591 
27110000   0.10404262 
27120000   0.11035076 
27130000  0.094970419 
27140000   0.10929055 
27150000  0.094430937 
27160000   0.11069215 
27170000  0.096172643 
27180000   0.10660589 
27190000  0.099637629 
27200000  0.097209793 
27210000  0.097191544 
27220000   0.10626338 
27230000   0.10786411 
27240000   0.09811734 
27250000   0.10408158 
27260000  0.089979211 
27270000  0.093313753 
27280000   0.09947107 
27290000   0.09767796 
27300000  0.097615244 
27310000   0.10671502 
[...]
372190000   0.11218138 
372200000  0.097784243 
372210000    0.1118285 
372220000   0.10078388 
372230000   0.11529977 
372240000   0.10396805 
372250000  0.086595424 
372260000   0.10060376 
372270000  0.087312791 
372280000  0.098568912 
372290000  0.086573183 
372300000  0.095463291 
372310000   0.10119072 
372320000   0.10759116 
372330000   0.10619254 
372340000    0.1076199 
372350000  0.095935503 
372360000   0.10125934 
372370000   0.10129502 
372380000  0.095580037 
372390000   0.11575102 
372400000  0.097344546 
372410000  0.094376381 
372420000    0.1012468 
372430000  0.095701444 
372440000   0.12125841 
372450000   0.10279793 
372460000  0.099805462 
372470000   0.10218578 
372480000  0.097628149 
372490000  0.090820615 
372500000  0.093987381 
372510000  0.098864801 
372520000   0.11516438 
372530000    0.1002215 
372540000  0.094708144 
372550000   0.10399475 
372560000  0.096135188 
372570000   0.10426517 
372580000   0.10279808 
372590000   0.10152359 
372600000  0.089137896 
372610000  0.090986586 
372620000  0.092658522 
372630000  0.093522196 
372640000  0.090434979 
372650000   0.11574877 
372660000  0.097026485 
372670000   0.11586461 
372680000   0.10020262 
372690000   0.10670958 
372700000   0.10298023 
372710000   0.09534521 
372720000   0.11535962 
372730000   0.10478267 
372740000   0.10680239 
372750000   0.10233429 
372760000  0.089960391 
372770000   0.11665261 
372780000  0.096589549 
372790000   0.10467416 
372800000  0.098906711 
372810000   0.11236852 
372820000   0.10304799 
372830000  0.096745084 
372840000  0.099028991 
372850000   0.10087433 
372860000   0.10411631 
372870000  0.090582577 
372880000   0.10335997 
372890000   0.10418332 
372900000  0.099210279 
372910000   0.10759522 
372920000  0.089280469 
372930000   0.10307793 
372940000  0.099049528 
372950000  0.086588575 
372960000   0.10683442 
372970000   0.11191132 
372980000  0.091351829 
372990000  0.095052746 
373000000  0.095119528 
373010000   0.10420502 
373020000    0.1077363 
373030000   0.10600627 
373040000  0.096229645 
373050000  0.098979059 
373060000  0.097754177 
373070000   0.10339056 
373080000  0.095754489 
373090000  0.096879103 
373100000   0.09207023 
373110000  0.093638487 
373120000   0.10236639 
373130000  0.099973978 
373140000  0.091381111 
373150000  0.093814223 
373160000  0.092104478 
373170000   0.10643965 
373180000  0.095685184 
373190000  0.098578264 
373200000   0.10132605 
373210000   0.10100159 
373220000  0.097977764 
373230000   0.10588537 
373240000     0.100326 
373250000   0.10455211 
373260000  0.092316698 
373270000   0.10878041 
373280000  0.098070653 
373290000  0.092802586 
373300000  0.098938426 
373310000   0.09281904 
373320000  0.096087598 
373330000  0.083070734 
373340000   0.10836989 
373350000   0.10803787 
373360000    0.1119211 
373370000  0.099616662 
373380000  0.091440582 
373390000   0.10050983 
373400000  0.091703218 
373410000  0.098922565 
373420000  0.095847611 
373430000   0.11105705 
373440000  0.091632452 
373450000  0.092708665 
373460000  0.096773218 
373470000  0.097842558 
373480000  0.098589343 
373490000  0.097095358 
373500000  0.098331579 
373510000  0.095478596 
373520000   0.10182224 
373530000   0.11257025 
373540000  0.099236532 
373550000  0.095547547 
373560000   0.11034491 
373570000   0.10110059 
373580000   0.10994493 
373590000  0.097927023 
373600000  0.098832741 
373610000   0.10398672 
373620000  0.095437974 
373630000  0.092326735 
373640000   0.10293078 
373650000   0.10505133 
373660000  0.088161488 
373670000   0.10372546 
373680000  0.096328456 
373690000  0.089216962 
373700000    0.1063377 
373710000  0.097200804 
373720000   0.10634387 
373730000    0.1060563 
373740000   0.10466744 
373750000  0.099871319 
373760000   0.10922331 
373770000   0.10926564 
373780000   0.10175333 
373790000   0.10317723 
373800000   0.10249598 
373810000   0.10051278 
373820000   0.10407459 
373830000    0.0945916 
373840000   0.10520596 
373850000  0.096847226 
373860000   0.10365775 
373870000  0.093900314 
373880000   0.08581754 
373890000    0.1065983 
373900000  0.093344454 
373910000   0.10054498 
373920000   0.10276976 
373930000  0.097261441 
373940000   0.11977851 
373950000   0.11227582 
373960000   0.11398574 
373970000  0.094822375 
373980000   0.10631496 
373990000  0.094793793 
374000000  0.097752418 
374010000  0.096589924 
374020000     0.100644 
374030000    0.1003471 
374040000   0.10328039 
374050000  0.094950982 
374060000   0.11027933 
374070000   0.10036196 
374080000   0.10331121 
374090000  0.091979793 
374100000   0.11097085 
374110000   0.10815018 
374120000   0.10620103 
374130000   0.10467732 
374140000   0.10672073 
374150000    0.1011742 
374160000   0.10308632 
374170000   0.10704347 
374180000  0.088991367 
374190000  0.096816216 
374200000   0.09685813 
374210000  0.096702534 
374220000   0.10071837 
374230000  0.099248123 
374240000  0.091815858 
374250000  0.097375061 
374260000  0.097358812 
374270000   0.10611939 
374280000  0.093749054 
374290000   0.10023792 
374300000   0.10898181 
374310000  0.090708879 
374320000   0.10420553 
374330000  0.094163474 
374340000   0.10982969 
374350000    0.0865463 
374360000   0.10455665 
374370000   0.09612043 
374380000  0.095628668 
374390000    0.1059615 
374400000  0.089599133 
374410000  0.094253065 
374420000   0.10363106 
374430000   0.10014238 
374440000    0.1059021 
374450000  0.098532775 
374460000    0.1074269 
374470000   0.09538547 
374480000  0.096191391 
374490000   0.10752318 
374500000   0.10722484 
374510000   0.10179906 
374520000  0.094954398 
374530000  0.095012238 
374540000  0.097724577 
374550000   0.11057866 
374560000   0.11025228 
374570000  0.098904717 
374580000   0.10817551 
374590000   0.10152039 
374600000  0.092601382 
374610000   0.10352485 
374620000  0.088995167 
374630000  0.098727642 
374640000   0.10121709 
374650000  0.093015967 
374660000   0.10648598 
374670000   0.10258288 
374680000    0.1049992 
374690000   0.10121173 
374700000    0.1009797 
374710000   0.10367674 
374720000  0.092709506 
374730000  0.090646681 
374740000   0.10665422 
374750000   0.09829422 
374760000  0.095615259 
374770000   0.10604022 
374780000   0.09080728 
374790000  0.087897084 
374800000   0.10244197 
374810000   0.10723238 
374820000   0.09630091 
374830000  0.099116959 
374840000  0.095602631 
374850000  0.092883766 
374860000   0.10674792 
374870000  0.096389672 
374880000   0.10592664 
374890000   0.10489106 
374900000  0.092212363 
374910000  0.092687192 
374920000   0.10261643 
374930000   0.10020545 
374940000   0.10200745 
374950000  0.092140198 
374960000   0.10786867 
374970000   0.10786332 
374980000    0.1014829 
374990000  0.097867647 
375000000   0.10061951 
375010000  0.098223954 
375020000   0.11033204 
375030000   0.10242244 
375040000  0.098084806 
375050000   0.10891612 
375060000  0.097362516 
375070000  0.092598416 
375080000  0.098160135 
375090000   0.10120374 
375100000   0.10363273 
375110000   0.10582964 
375120000   0.10771602 
375130000   0.10523516 
375140000   0.11522023 
375150000  0.093735232 
375160000   0.11357221 
375170000   0.10124157 
375180000   0.10757951 
375190000   0.10568362 
375200000   0.10535138 
375210000  0.099089054 
375220000   0.10949791 
375230000   0.10896266 
375240000  0.095678574 
375250000   0.10270989 
375260000   0.10467465 
375270000   0.10886716 
375280000   0.10284478 
375290000  0.095573778 
375300000  0.098501348 
375310000   0.10203453 
375320000    0.1057189 
375330000   0.10615789 
375340000  0.098809823 
375350000   0.10248753 
375360000   0.10840529 
375370000   0.10381448 
375380000  0.095395793 
375390000  0.099157136 
375400000   0.10334094 
375410000  0.085578033 
375420000   0.10788318 
375430000   0.11046704 
375440000   0.10225608 
375450000  0.098075279 
375460000  0.093230143 
375470000   0.10247214 
375480000   0.11589385 
375490000    0.1174777 
375500000   0.10476051 
375510000   0.10580946 
375520000  0.099418982 
375530000   0.10555151 
375540000  0.098821969 
375550000   0.10348301 
375560000  0.095949031 
375570000   0.11075218 
375580000  0.095136048 
375590000   0.10315524 
375600000    0.1043838 
375610000   0.11614317 
375620000   0.10856532 
375630000  0.088041325 
375640000   0.11066468 
375650000  0.095248954 
375660000   0.10243748 
375670000  0.093866846 
375680000  0.092982138 
375690000   0.10291838 
375700000   0.10372061 
375710000  0.097200324 
375720000  0.099843439 
375730000  0.092441001 
375740000   0.10179167 
375750000  0.088919282 
375760000  0.090294758 
375770000   0.10791937 
375780000  0.099288701 
375790000   0.10396851 
375800000   0.10300922 
375810000   0.10627151 
375820000  0.092948744 
375830000   0.10267069 
375840000   0.10612762 
375850000   0.10018907 
375860000   0.11609275 
375870000   0.10295785 
375880000  0.084480188 
375890000   0.10290741 
375900000   0.10716307 
375910000   0.10074876 
375920000   0.11094758 
375930000  0.097911563 
375940000  0.099528436 
375950000   0.10846997 
375960000   0.10511972 
375970000   0.10587405 
375980000   0.10948424 
375990000   0.11139909 
376000000  0.098992302 
376010000  0.090979163 
376020000   0.11396638 
376030000  0.094254347 
376040000   0.10531348 
376050000  0.099224106 
376060000   0.10708509 
376070000    0.1027991 
376080000  0.093423663 
376090000   0.10164903 
376100000   0.11667256 
376110000   0.10286535 
376120000   0.10624462 
376130000  0.096861003 
376140000  0.097512719 
376150000  0.099095566 
376160000  0.091619381 
376170000   0.10832871 
376180000  0.099114138 
376190000   0.10144758 
376200000  0.096046349 
376210000  0.082961268 
376220000   0.10548468 
376230000   0.11225608 
376240000  0.099919079 
376250000  0.093702943 
376260000   0.10467712 
376270000  0.098134058 
376280000   0.09573742 
376290000  0.095039511 
376300000  0.091968901 
376310000   0.10872799 
376320000  0.098602386 
376330000   0.10040819 
376340000   0.10343776 
376350000   0.10059367 
376360000   0.10666237 
376370000   0.10710424 
376380000   0.11524416 
376390000    0.1012109 
376400000   0.10666546 
376410000   0.10889983 
376420000   0.10289435 
376430000   0.10536332 
376440000    0.1156649 
376450000   0.10836323 
376460000   0.10478071 
376470000  0.098547795 
376480000   0.10381685 
376490000  0.092520357 
376500000  0.096260452 
376510000   0.10878754 
376520000   0.11372266 
376530000  0.087647004 
376540000  0.094270636 
376550000  0.093351183 
376560000   0.10241165 
376570000    0.1061182 
376580000  0.099370011 
376590000   0.10756846 
376600000   0.10181679 
376610000   0.10664374 
376620000   0.10407947 
376630000  0.089817605 
376640000  0.091809253 
376650000   0.11082255 
376660000  0.099324511 
376670000  0.098340683 
376680000   0.10212269 
376690000  0.099100023 
376700000   0.11154445 
376710000  0.099813008 
376720000   0.11374252 
376730000  0.097143203 
376740000   0.10497198 
376750000   0.10168583 
376760000   0.11789478 
376770000  0.099509069 
376780000   0.11099296 
376790000  0.099090842 
376800000   0.11352784 
376810000   0.10531298 
376820000   0.10750987 
376830000   0.10278895 
376840000  0.097390409 
376850000    0.1035081 
376860000   0.11363331 
376870000   0.09673057 
376880000  0.099813888 
376890000   0.10914234 
376900000  0.087612236 
376910000   0.10220267 
376920000  0.096488317 
376930000   0.10056306 
376940000  0.092403373 
376950000  0.088583633 
376960000    0.1067956 
376970000  0.090990637 
376980000   0.10211931 
376990000   0.10340979 
377000000   0.10143352 
377010000   0.10065476 
377020000  0.098366397 
377030000  0.095433857 
377040000    0.0986525 
377050000   0.11605608 
377060000  0.099912402 
377070000  0.098256366 
377080000  0.097115053 
377090000   0.10877941 
377100000  0.094029341 
377110000  0.096402814 
377120000  0.094225554 
377130000  0.095493855 
377140000   0.10207647 
377150000   0.10224296 
377160000   0.09588007 
377170000   0.10838415 
377180000   0.10615041 
377190000  0.093261404 
377200000  0.094828958 
377210000   0.09583801 
377220000  0.091766898 
377230000   0.10705852 
377240000  0.097550185 
377250000  0.098061233 
377260000  0.088561034 
377270000  0.099288967 
377280000  0.099331215 
377290000   0.10402988 
377300000   0.10462637 
377310000  0.093310124 
377320000   0.10466941 
377330000   0.10012777 
377340000  0.094167671 
377350000   0.10720821 
377360000   0.10093282 
377370000   0.10864118 
377380000    0.0997703 
377390000   0.10678439 
377400000  0.094181921 
377410000    0.1094256 
377420000  0.084662005 
377430000   0.10055428 
377440000  0.089640902 
377450000   0.10216449 
377460000  0.090490003 
377470000   0.10110741 
377480000   0.10073662 
377490000   0.10623576 
377500000  0.095388508 
377510000   0.11102491 
377520000   0.10595788 
377530000  0.093089823 
377540000   0.10123299 
377550000   0.11429887 
377560000   0.10029863 
377570000   0.09284371 
377580000  0.095279068 
377590000   0.10615154 
377600000  0.089392627 
377610000    0.1004809 
377620000   0.10537728 
377630000   0.10883211 
377640000   0.10422136 
377650000   0.10505554 
377660000  0.096395854 
377670000   0.10045683 
377680000   0.11045185 
377690000   0.09891206 
377700000  0.090174477 
377710000  0.089756904 
377720000   0.10356821 
377730000   0.11170468 
377740000   0.10452665 
377750000  0.094625728 
377760000   0.10585034 
377770000   0.10349225 
377780000   0.10323519 
377790000  0.098626395 
377800000   0.10019037 
377810000   0.10472473 
377820000  0.095328223 
377830000  0.089943852 
377840000  0.096253676 
377850000   0.10086135 
377860000   0.10196352 
377870000  0.099797849 
377880000  0.098766156 
377890000   0.10695515 
377900000   0.10223843 
377910000   0.11669083 
377920000  0.089675892 
377930000  0.091362431 
377940000  0.097450595 
377950000  0.094902596 
377960000  0.089344451 
377970000  0.098539741 
377980000  0.097721876 
377990000   0.10041495 
378000000  0.089594372 
378010000   0.10370902 
378020000  0.098681808 
378030000   0.11477708 
378040000   0.10157937 
378050000  0.096013692 
378060000   0.09109107 
378070000   0.10905973 
378080000   0.11488436 
378090000   0.10374024 
378100000  0.093429445 
378110000   0.10391596 
378120000   0.09903654 
378130000  0.094450463 
378140000  0.098703223 
378150000  0.091714895 
378160000  0.087113232 
378170000   0.10765821 
378180000   0.10818401 
378190000  0.098492033 
378200000   0.10701425 
378210000  0.097291986 
378220000  0.092997683 
378230000  0.095754652 
378240000  0.087692245 
378250000   0.10323826 
378260000   0.11037232 
378270000   0.10913333 
378280000  0.091620829 
378290000    0.1035925 
378300000  0.099275998 
378310000  0.096669201 
378320000  0.095428802 
378330000  0.094137965 
378340000   0.10571029 
378350000   0.09827253 
378360000   0.11184808 
378370000  0.098548086 
378380000    0.1083809 
378390000  0.098252883 
378400000   0.10077936 
378410000   0.10349897 
378420000   0.10780033 
378430000  0.095949033 
378440000   0.10367076 
378450000   0.10320245 
378460000  0.099192006 
378470000  0.088839179 
378480000   0.10482647 
378490000   0.10956036 
378500000   0.10085677 
378510000   0.11615939 
378520000   0.10772781 
378530000   0.10689305 
378540000   0.10807585 
378550000  0.098679869 
378560000  0.097913941 
378570000   0.11036021 
378580000  0.092788971 
378590000  0.097939066 
378600000  0.086228836 
378610000  0.095606886 
378620000   0.10297558 
378630000  0.091964969 
378640000   0.10431167 
378650000   0.10466303 
378660000  0.090048227 
378670000    0.1193032 
378680000   0.10034607 
378690000  0.099068352 
378700000  0.088590683 
378710000    0.0992698 
378720000  0.095279768 
378730000  0.096748715 
378740000  0.089434823 
378750000   0.11581514 
378760000   0.10852014 
378770000  0.097876879 
378780000  0.094530584 
378790000   0.10344468 
378800000    0.1039737 
378810000   0.10539736 
378820000   0.10900392 
378830000   0.11116275 
378840000  0.097581858 
378850000   0.10699926 
378860000   0.10086001 
378870000    0.1022655 
378880000  0.099927093 
378890000   0.11879265 
378900000   0.10068298 
378910000   0.10072729 
378920000   0.10224303 
378930000  0.097834162 
378940000   0.10280715 
378950000   0.10654791 
378960000  0.090344208 
378970000   0.10990022 
378980000   0.11172773 
378990000  0.098739222 
379000000   0.10523106 
379010000   0.10410486 
379020000   0.10787155 
379030000   0.10534294 
379040000   0.10441174 
379050000   0.10743341 
379060000    0.1097056 
379070000   0.11246893 
379080000   0.10019958 
379090000   0.10597503 
379100000   0.10122009 
379110000   0.11033658 
379120000   0.10635141 
379130000  0.090947158 
379140000  0.096955043 
379150000   0.10730404 
379160000   0.10584901 
379170000  0.095820218 
379180000   0.10304821 
379190000  0.097679453 
379200000   0.10380695 
379210000   0.11020632 
379220000  0.096313991 
379230000   0.10281452 
379240000  0.099403725 
379250000   0.10337376 
379260000    0.1018353 
379270000   0.10181144 
379280000  0.096606062 
379290000   0.10198212 
379300000   0.10426312 
379310000   0.10712777 
379320000   0.10656207 
379330000   0.10314634 
379340000   0.09962525 
379350000  0.099093898 
379360000   0.09583568 
379370000   0.11492295 
379380000   0.10509671 
379390000  0.097362804 
379400000   0.10373719 
379410000  0.095859776 
379420000  0.096662629 
379430000  0.095005554 
379440000   0.10186296 
379450000   0.11930483 
379460000   0.11410666 
379470000    0.1201702 
379480000  0.092786985 
379490000   0.10788967 
379500000  0.098040983 
379510000   0.10678134 
379520000  0.098406939 
379530000  0.099915808 
379540000    0.1015284 
379550000  0.094733451 
379560000   0.10670001 
379570000    0.1026869 
379580000   0.10189163 
379590000   0.10017401 
379600000  0.099268971 
379610000   0.10860627 
379620000  0.097752736 
379630000  0.099862999 
379640000   0.10216938 
379650000   0.10571859 
379660000   0.10473074 
379670000  0.093634512 
379680000   0.10260085 
379690000   0.10420526 
379700000   0.11207881 
379710000  0.092328005 
379720000  0.095897994 
379730000   0.10764175 
379740000   0.11774144 
379750000    0.0997299 
379760000   0.10039776 
379770000  0.098693376 
379780000   0.10701672 
379790000   0.11010245 
379800000   0.11144659 
379810000   0.09705146 
379820000   0.10234648 
379830000  0.097313292 
379840000   0.10178508 
379850000   0.10549169 
379860000   0.09802429 
379870000   0.10593275 
379880000   0.11313352 
379890000  0.092120996 
379900000   0.10490238 
379910000   0.10362051 
379920000  0.097007493 
379930000  0.095276152 
379940000   0.10178973 
379950000   0.11424054 
379960000   0.10199855 
379970000   0.11067525 
379980000   0.10057748 
379990000  0.096999973 
380000000   0.10479945 
Loop time of 181207 on 1 procs for 200000000 steps with 141 atoms

Performance: 95360.407 tau/day, 1103.708 timesteps/s
99.8% CPU use with 1 MPI tasks x no OpenMP threads

MPI task timing breakdown:
Section |  min time  |  avg time  |  max time  |%varavg| %total
---------------------------------------------------------------
Pair    | 1.726e+05  | 1.726e+05  | 1.726e+05  |   0.0 | 95.25
Bond    | 1695.3     | 1695.3     | 1695.3     |   0.0 |  0.94
Neigh   | 50.45      | 50.45      | 50.45      |   0.0 |  0.03
Comm    | 464.07     | 464.07     | 464.07     |   0.0 |  0.26
Output  | 44.648     | 44.648     | 44.648     |   0.0 |  0.02
Modify  | 6233.5     | 6233.5     | 6233.5     |   0.0 |  3.44
Other   |            | 120.7      |            |       |  0.07

Nlocal:        141.000 ave         141 max         141 min
Histogram: 1 0 0 0 0 0 0 0 0 0
Nghost:        220.000 ave         220 max         220 min
Histogram: 1 0 0 0 0 0 0 0 0 0
Neighs:        5548.00 ave        5548 max        5548 min
Histogram: 1 0 0 0 0 0 0 0 0 0

Total # of neighbors = 5548
Ave neighs/atom = 39.347518
Ave special neighs/atom = 5.7446809
Neighbor list builds = 36928
Dangerous builds = 0
Total wall time: 105:22:00
