# LAMMPS data file
141 atoms
141 ellipsoids
138 bonds

4 atom types
1 bond types

# System size
0.000000 31.000000 xlo xhi
0.000000 31.000000 ylo yhi
0.000000 31.000000 zlo zhi

Masses

1 3.1575
2 3.1575
3 3.1575
4 3.1575

# Atom-ID, type, position, molecule-ID, ellipsoid flag, density
Atoms

1 3 -4.189685821533203e+00 -1.000842380523682e+01 -3.504930019378662e+00 1 1 1
2 2 -3.923117876052856e+00 -9.819470405578613e+00 -3.078425168991089e+00 1 1 1
3 4 -3.495764255523682e+00 -9.630126953125000e+00 -2.813516139984131e+00 1 1 1
4 1 -3.022786378860474e+00 -9.380176544189453e+00 -2.763468980789185e+00 1 1 1
5 3 -2.636697769165039e+00 -9.032396316528320e+00 -2.900198459625244e+00 1 1 1
6 2 -2.436988353729248e+00 -8.586813926696777e+00 -3.124286651611328e+00 1 1 1
7 1 -2.452351093292236e+00 -8.080491065979004e+00 -3.303460597991943e+00 1 1 1
8 3 -2.629759788513184e+00 -7.573678970336914e+00 -3.322337627410889e+00 1 1 1
9 1 -2.854619741439819e+00 -7.126742362976074e+00 -3.126387357711792e+00 1 1 1
10 4 -2.994329690933228e+00 -6.777362823486328e+00 -2.742879390716553e+00 1 1 1
11 3 -2.948612451553345e+00 -6.526068210601807e+00 -2.270208120346069e+00 1 1 1
12 1 -2.687657356262207e+00 -6.336209774017334e+00 -1.840613007545471e+00 1 1 1
13 4 -2.263413667678833e+00 -6.147758483886719e+00 -1.570095777511597e+00 1 1 1
14 1 -1.789871931076050e+00 -5.900140762329102e+00 -1.514098286628723e+00 1 1 1
15 2 -1.399757027626038e+00 -5.555279731750488e+00 -1.646645903587341e+00 1 1 1
16 2 -1.194090127944946e+00 -5.112058639526367e+00 -1.870106220245361e+00 1 1 1
17 3 -1.203818917274475e+00 -4.606667995452881e+00 -2.052314519882202e+00 1 1 1
18 2 -1.378058552742004e+00 -4.099023342132568e+00 -2.076690435409546e+00 1 1 1
19 2 -1.603435993194580e+00 -3.649762153625488e+00 -1.886822700500488e+00 1 1 1
20 2 -1.747125387191772e+00 -3.297461986541748e+00 -1.507435441017151e+00 1 1 1
21 1 -1.707359790802002e+00 -3.043794870376587e+00 -1.035449862480164e+00 1 1 1
22 2 -1.452055811882019e+00 -2.852960348129272e+00 -6.029353737831116e-01 1 1 1
23 4 -1.031019926071167e+00 -2.665335655212402e+00 -3.268508315086365e-01 1 1 1
24 1 -5.570307970046997e-01 -2.420030593872070e+00 -2.648915946483612e-01 1 1 1
25 4 -1.629683673381805e-01 -2.078088283538818e+00 -3.932538330554962e-01 1 1 1
26 4  4.864034801721573e-02 -1.637263536453247e+00 -6.159028410911560e-01 1 1 1
27 4  4.458530992269516e-02 -1.132881999015808e+00 -8.009772300720215e-01 1 1 1
28 3  1.047350168228149e+00  6.845478713512421e-02 -9.098091721534729e-01 1 1 1
29 1  1.128858923912048e+00  4.828465580940247e-01 -1.241943717002869e+00 1 1 1
30 3  1.274503946304321e+00  9.831535816192627e-01 -1.372959733009338e+00 1 1 1
31 4  1.545513749122620e+00  1.443796277046204e+00 -1.317747831344604e+00 1 1 1
32 4  1.955443263053894e+00  1.754251003265381e+00 -1.162024259567261e+00 1 1 1
33 3  2.465112209320068e+00  1.861071705818176e+00 -1.029638051986694e+00 1 1 1
34 1  2.997411489486694e+00  1.788153529167175e+00 -1.035623550415039e+00 1 1 1
35 2  3.466639518737793e+00  1.627681016921997e+00 -1.242409229278564e+00 1 1 1
36 3  3.811073780059814e+00  1.505119442939758e+00 -1.636140465736389e+00 1 1 1
37 3  4.016368865966797e+00  1.531506538391113e+00 -2.131979227066040e+00 1 1 1
38 1  4.121113777160645e+00  1.761325001716614e+00 -2.606215000152588e+00 1 1 1
39 2  4.202003955841064e+00  2.171736240386963e+00 -2.943434953689575e+00 1 1 1
40 2  4.344850063323975e+00  2.671296596527100e+00 -3.080214023590088e+00 1 1 1
41 1  4.611954212188721e+00  3.134732246398926e+00 -3.029282808303833e+00 1 1 1
42 2  5.018327713012695e+00  3.450439453125000e+00 -2.874742031097412e+00 1 1 1
43 4  5.526108741760254e+00  3.562945365905762e+00 -2.740032672882080e+00 1 1 1
44 1  6.058972835540771e+00  3.494050979614258e+00 -2.740983724594116e+00 1 1 1
45 4  6.530982494354248e+00  3.334375858306885e+00 -2.942012548446655e+00 1 1 1
46 3  6.879335880279541e+00  3.209061861038208e+00 -3.331399679183960e+00 1 1 1
47 2  7.088246345520020e+00  3.230252742767334e+00 -3.825953245162964e+00 1 1 1
48 3 -5.353412628173828e+00  5.838974475860596e+00  8.199671745300293e+00 2 1 1
49 2 -4.888788700103760e+00  5.575474262237549e+00  8.141504287719727e+00 2 1 1
50 4 -4.575518608093262e+00  5.141775608062744e+00  8.092227935791016e+00 2 1 1
51 1 -4.461322784423828e+00  4.633504390716553e+00  7.960628986358643e+00 2 1 1
52 3 -4.518319606781006e+00  4.174703598022461e+00  7.686863422393799e+00 2 1 1
53 2 -4.653540134429932e+00  3.870569944381714e+00  7.265055656433105e+00 2 1 1
54 1 -4.744359970092773e+00  3.767584323883057e+00  6.745610713958740e+00 2 1 1
55 2 -4.684948921203613e+00  3.835747480392456e+00  6.215979576110840e+00 2 1 1
56 2 -4.426631450653076e+00  3.980093717575073e+00  5.767536640167236e+00 2 1 1
57 4 -3.996218919754028e+00  4.076676368713379e+00  5.460780143737793e+00 2 1 1
58 1 -3.485990285873413e+00  4.019704341888428e+00  5.302312374114990e+00 2 1 1
59 2 -3.018454313278198e+00  3.761736392974854e+00  5.242588043212891e+00 2 1 1
60 2 -2.699987888336182e+00  3.331704616546631e+00  5.194353103637695e+00 2 1 1
61 2 -2.580295324325562e+00  2.823878765106201e+00  5.066055297851562e+00 2 1 1
62 3 -2.633509397506714e+00  2.362074851989746e+00  4.796652793884277e+00 2 1 1
63 4 -2.768195629119873e+00  2.052671670913696e+00  4.378525257110596e+00 2 1 1
64 1 -2.861842870712280e+00  1.944128751754761e+00  3.860728740692139e+00 2 1 1
65 2 -2.807638645172119e+00  2.008570432662964e+00  3.330049991607666e+00 2 1 1
66 3 -2.554835319519043e+00  2.152428388595581e+00  2.878314018249512e+00 2 1 1
67 1 -2.128231525421143e+00  2.251959800720215e+00  2.567203044891357e+00 2 1 1
68 3 -1.618622541427612e+00  2.200268030166626e+00  2.405045986175537e+00 2 1 1
69 1 -1.148293137550354e+00  1.947882533073425e+00  2.343622922897339e+00 2 1 1
70 1 -8.246557712554932e-01  1.521586418151855e+00  2.296373844146729e+00 2 1 1
71 3 -6.993887424468994e-01  1.014277100563049e+00  2.171416044235229e+00 2 1 1
72 3 -7.488209009170532e-01  5.495716333389282e-01  1.906243920326233e+00 2 1 1
73 3 -8.828266859054565e-01  2.349296361207962e-01  1.491845250129700e+00 2 1 1
74 2 -9.792647957801819e-01  1.208045706152916e-01  9.757429957389832e-01 2 1 1
75 1 -8.342047333717346e-01 -1.111336827278137e+00  1.586986891925335e-02 2 1 1
76 1 -1.086664080619812e+00 -1.302660346031189e+00 -4.181068241596222e-01 2 1 1
77 1 -1.123467564582825e+00 -1.557539701461792e+00 -8.896565437316895e-01 2 1 1
78 4 -9.778093695640564e-01 -1.911301255226135e+00 -1.266920328140259e+00 2 1 1
79 1 -7.522268891334534e-01 -2.361705780029297e+00 -1.453804016113281e+00 2 1 1
80 3 -5.796026587486267e-01 -2.869776248931885e+00 -1.426679134368896e+00 2 1 1
81 4 -5.727018713951111e-01 -3.374665975570679e+00 -1.243006944656372e+00 2 1 1
82 3 -7.813455462455750e-01 -3.816711664199829e+00 -1.019924879074097e+00 2 1 1
83 3 -1.173438668251038e+00 -4.160100936889648e+00 -8.894364237785339e-01 2 1 1
84 3 -1.647223353385925e+00 -4.406552314758301e+00 -9.484738111495972e-01 2 1 1
85 2 -2.069870948791504e+00 -4.594586372375488e+00 -1.221742153167725e+00 2 1 1
86 3 -2.328008890151978e+00 -4.784925937652588e+00 -1.652794599533081e+00 2 1 1
87 3 -2.370744705200195e+00 -5.037404060363770e+00 -2.125157594680786e+00 2 1 1
88 4 -2.229034900665283e+00 -5.388260364532471e+00 -2.506609201431274e+00 2 1 1
89 1 -2.003904819488525e+00 -5.836337089538574e+00 -2.699573278427124e+00 2 1 1
90 4 -1.828070402145386e+00 -6.343589305877686e+00 -2.677888631820679e+00 2 1 1
91 2 -1.815517663955688e+00 -6.849444389343262e+00 -2.497199296951294e+00 2 1 1
92 1 -2.018208742141724e+00 -7.293845653533936e+00 -2.273423671722412e+00 2 1 1
93 4 -2.406312704086304e+00 -7.640156745910645e+00 -2.138752937316895e+00 2 1 1
94 2 -2.879590988159180e+00 -7.888942241668701e+00 -2.191770792007446e+00 2 1 1
95 3  8.811817169189453e+00  4.705197811126709e+00 -5.495326519012451e+00 3 1 1
96 2  8.731712341308594e+00  4.300889492034912e+00 -5.150648117065430e+00 3 1 1
97 4  8.624125480651855e+00  4.079672336578369e+00 -4.672988414764404e+00 3 1 1
98 1  8.413412094116211e+00  4.061093330383301e+00 -4.179080486297607e+00 3 1 1
99 3  8.063127517700195e+00  4.187727928161621e+00 -3.791836261749268e+00 3 1 1
100 2  7.589741706848145e+00  4.346973896026611e+00 -3.593725919723511e+00 3 1 1
101 1  7.056632518768311e+00  4.413840293884277e+00 -3.595271348953247e+00 3 1 1
102 3  6.549757957458496e+00  4.298457622528076e+00 -3.731143951416016e+00 3 1 1
103 2  6.145218372344971e+00  3.980156183242798e+00 -3.884993553161621e+00 3 1 1
104 1  5.880064487457275e+00  3.515361070632935e+00 -3.933783292770386e+00 3 1 1
105 4  5.738608360290527e+00  3.016213178634644e+00 -3.794093847274780e+00 3 1 1
106 1  5.657976627349854e+00  2.607820272445679e+00 -3.454381465911865e+00 3 1 1
107 3  5.552318572998047e+00  2.380866527557373e+00 -2.978974103927612e+00 3 1 1
108 4  5.345217227935791e+00  2.357083559036255e+00 -2.483772516250610e+00 3 1 1
109 3  4.998830795288086e+00  2.481022834777832e+00 -2.092178583145142e+00 3 1 1
110 3  4.528187274932861e+00  2.641103267669678e+00 -1.888298392295837e+00 3 1 1
111 4  3.995629072189331e+00  2.712039470672607e+00 -1.884809732437134e+00 3 1 1
112 2  3.486880302429199e+00  2.602367639541626e+00 -2.018377065658569e+00 3 1 1
113 2  3.078690528869629e+00  2.289268493652344e+00 -2.173558712005615e+00 3 1 1
114 3  2.809686660766602e+00  1.827236294746399e+00 -2.226593494415283e+00 3 1 1
115 4  2.665424823760986e+00  1.327277898788452e+00 -2.092716217041016e+00 3 1 1
116 2  2.584224462509155e+00  9.148693680763245e-01 -1.758033156394958e+00 3 1 1
117 1  2.480406522750854e+00  6.821971535682678e-01 -1.284995079040527e+00 3 1 1
118 1  2.276884794235229e+00  6.531802415847778e-01 -7.885624766349792e-01 3 1 1
119 2  1.934407949447632e+00  7.743379473686218e-01 -3.926962018013000e-01 3 1 1
120 4  1.466568589210510e+00  9.351543784141541e-01 -1.830557435750961e-01 3 1 1
121 2  9.345915317535400e-01  1.010060787200928e+00 -1.745337694883347e-01 3 1 1
122 3 -2.132259309291840e-01  1.040883660316467e+00  8.941789269447327e-01 3 1 1
123 2 -6.849095821380615e-01  1.290480136871338e+00  9.564927816390991e-01 3 1 1
124 2 -1.194213032722473e+00  1.339573144912720e+00  1.120469093322754e+00 3 1 1
125 2 -1.618899941444397e+00  1.238596081733704e+00  1.433719158172607e+00 3 1 1
126 4 -1.868913888931274e+00  1.095001459121704e+00  1.887123107910156e+00 3 1 1
127 4 -1.920562505722046e+00  1.032444715499878e+00  2.418241024017334e+00 3 1 1
128 2 -1.825522780418396e+00  1.143787741661072e+00  2.935188531875610e+00 3 1 1
129 4 -1.691167712211609e+00  1.455813050270081e+00  3.351449251174927e+00 3 1 1
130 2 -1.639821052551270e+00  1.919070720672607e+00  3.618752956390381e+00 3 1 1
131 3 -1.762298703193665e+00  2.426660537719727e+00  3.745384216308594e+00 3 1 1
132 4 -2.083357095718384e+00  2.854818582534790e+00  3.793131113052368e+00 3 1 1
133 1 -2.552284717559814e+00  3.110009670257568e+00  3.853709697723389e+00 3 1 1
134 2 -3.062251806259155e+00  3.164334774017334e+00  4.013935565948486e+00 3 1 1
135 3 -3.490750551223755e+00  3.066261768341064e+00  4.322902202606201e+00 3 1 1
136 3 -3.746309280395508e+00  2.922157049179077e+00  4.773023128509521e+00 3 1 1
137 3 -3.803127527236938e+00  2.855834960937500e+00  5.303146362304688e+00 3 1 1
138 4 -3.710875034332275e+00  2.961601972579956e+00  5.821791648864746e+00 3 1 1
139 1 -3.575904846191406e+00  3.268371105194092e+00  6.241753578186035e+00 3 1 1
140 3 -3.520785093307495e+00  3.728684425354004e+00  6.513361454010010e+00 3 1 1
141 3 -3.637740850448608e+00  4.236746311187744e+00  6.643287658691406e+00 3 1 1

# Atom-ID, translational, rotational velocity
Velocities

1  0.000000000000000e+00  0.000000000000000e+00  0.000000000000000e+00  0.000000000000000e+00  0.000000000000000e+00  0.000000000000000e+00
2  0.000000000000000e+00  0.000000000000000e+00  0.000000000000000e+00  0.000000000000000e+00  0.000000000000000e+00  0.000000000000000e+00
3  0.000000000000000e+00  0.000000000000000e+00  0.000000000000000e+00  0.000000000000000e+00  0.000000000000000e+00  0.000000000000000e+00
4  0.000000000000000e+00  0.000000000000000e+00  0.000000000000000e+00  0.000000000000000e+00  0.000000000000000e+00  0.000000000000000e+00
5  0.000000000000000e+00  0.000000000000000e+00  0.000000000000000e+00  0.000000000000000e+00  0.000000000000000e+00  0.000000000000000e+00
6  0.000000000000000e+00  0.000000000000000e+00  0.000000000000000e+00  0.000000000000000e+00  0.000000000000000e+00  0.000000000000000e+00
7  0.000000000000000e+00  0.000000000000000e+00  0.000000000000000e+00  0.000000000000000e+00  0.000000000000000e+00  0.000000000000000e+00
8  0.000000000000000e+00  0.000000000000000e+00  0.000000000000000e+00  0.000000000000000e+00  0.000000000000000e+00  0.000000000000000e+00
9  0.000000000000000e+00  0.000000000000000e+00  0.000000000000000e+00  0.000000000000000e+00  0.000000000000000e+00  0.000000000000000e+00
10  0.000000000000000e+00  0.000000000000000e+00  0.000000000000000e+00  0.000000000000000e+00  0.000000000000000e+00  0.000000000000000e+00
11  0.000000000000000e+00  0.000000000000000e+00  0.000000000000000e+00  0.000000000000000e+00  0.000000000000000e+00  0.000000000000000e+00
12  0.000000000000000e+00  0.000000000000000e+00  0.000000000000000e+00  0.000000000000000e+00  0.000000000000000e+00  0.000000000000000e+00
13  0.000000000000000e+00  0.000000000000000e+00  0.000000000000000e+00  0.000000000000000e+00  0.000000000000000e+00  0.000000000000000e+00
14  0.000000000000000e+00  0.000000000000000e+00  0.000000000000000e+00  0.000000000000000e+00  0.000000000000000e+00  0.000000000000000e+00
15  0.000000000000000e+00  0.000000000000000e+00  0.000000000000000e+00  0.000000000000000e+00  0.000000000000000e+00  0.000000000000000e+00
16  0.000000000000000e+00  0.000000000000000e+00  0.000000000000000e+00  0.000000000000000e+00  0.000000000000000e+00  0.000000000000000e+00
17  0.000000000000000e+00  0.000000000000000e+00  0.000000000000000e+00  0.000000000000000e+00  0.000000000000000e+00  0.000000000000000e+00
18  0.000000000000000e+00  0.000000000000000e+00  0.000000000000000e+00  0.000000000000000e+00  0.000000000000000e+00  0.000000000000000e+00
19  0.000000000000000e+00  0.000000000000000e+00  0.000000000000000e+00  0.000000000000000e+00  0.000000000000000e+00  0.000000000000000e+00
20  0.000000000000000e+00  0.000000000000000e+00  0.000000000000000e+00  0.000000000000000e+00  0.000000000000000e+00  0.000000000000000e+00
21  0.000000000000000e+00  0.000000000000000e+00  0.000000000000000e+00  0.000000000000000e+00  0.000000000000000e+00  0.000000000000000e+00
22  0.000000000000000e+00  0.000000000000000e+00  0.000000000000000e+00  0.000000000000000e+00  0.000000000000000e+00  0.000000000000000e+00
23  0.000000000000000e+00  0.000000000000000e+00  0.000000000000000e+00  0.000000000000000e+00  0.000000000000000e+00  0.000000000000000e+00
24  0.000000000000000e+00  0.000000000000000e+00  0.000000000000000e+00  0.000000000000000e+00  0.000000000000000e+00  0.000000000000000e+00
25  0.000000000000000e+00  0.000000000000000e+00  0.000000000000000e+00  0.000000000000000e+00  0.000000000000000e+00  0.000000000000000e+00
26  0.000000000000000e+00  0.000000000000000e+00  0.000000000000000e+00  0.000000000000000e+00  0.000000000000000e+00  0.000000000000000e+00
27  0.000000000000000e+00  0.000000000000000e+00  0.000000000000000e+00  0.000000000000000e+00  0.000000000000000e+00  0.000000000000000e+00
28  0.000000000000000e+00  0.000000000000000e+00  0.000000000000000e+00  0.000000000000000e+00  0.000000000000000e+00  0.000000000000000e+00
29  0.000000000000000e+00  0.000000000000000e+00  0.000000000000000e+00  0.000000000000000e+00  0.000000000000000e+00  0.000000000000000e+00
30  0.000000000000000e+00  0.000000000000000e+00  0.000000000000000e+00  0.000000000000000e+00  0.000000000000000e+00  0.000000000000000e+00
31  0.000000000000000e+00  0.000000000000000e+00  0.000000000000000e+00  0.000000000000000e+00  0.000000000000000e+00  0.000000000000000e+00
32  0.000000000000000e+00  0.000000000000000e+00  0.000000000000000e+00  0.000000000000000e+00  0.000000000000000e+00  0.000000000000000e+00
33  0.000000000000000e+00  0.000000000000000e+00  0.000000000000000e+00  0.000000000000000e+00  0.000000000000000e+00  0.000000000000000e+00
34  0.000000000000000e+00  0.000000000000000e+00  0.000000000000000e+00  0.000000000000000e+00  0.000000000000000e+00  0.000000000000000e+00
35  0.000000000000000e+00  0.000000000000000e+00  0.000000000000000e+00  0.000000000000000e+00  0.000000000000000e+00  0.000000000000000e+00
36  0.000000000000000e+00  0.000000000000000e+00  0.000000000000000e+00  0.000000000000000e+00  0.000000000000000e+00  0.000000000000000e+00
37  0.000000000000000e+00  0.000000000000000e+00  0.000000000000000e+00  0.000000000000000e+00  0.000000000000000e+00  0.000000000000000e+00
38  0.000000000000000e+00  0.000000000000000e+00  0.000000000000000e+00  0.000000000000000e+00  0.000000000000000e+00  0.000000000000000e+00
39  0.000000000000000e+00  0.000000000000000e+00  0.000000000000000e+00  0.000000000000000e+00  0.000000000000000e+00  0.000000000000000e+00
40  0.000000000000000e+00  0.000000000000000e+00  0.000000000000000e+00  0.000000000000000e+00  0.000000000000000e+00  0.000000000000000e+00
41  0.000000000000000e+00  0.000000000000000e+00  0.000000000000000e+00  0.000000000000000e+00  0.000000000000000e+00  0.000000000000000e+00
42  0.000000000000000e+00  0.000000000000000e+00  0.000000000000000e+00  0.000000000000000e+00  0.000000000000000e+00  0.000000000000000e+00
43  0.000000000000000e+00  0.000000000000000e+00  0.000000000000000e+00  0.000000000000000e+00  0.000000000000000e+00  0.000000000000000e+00
44  0.000000000000000e+00  0.000000000000000e+00  0.000000000000000e+00  0.000000000000000e+00  0.000000000000000e+00  0.000000000000000e+00
45  0.000000000000000e+00  0.000000000000000e+00  0.000000000000000e+00  0.000000000000000e+00  0.000000000000000e+00  0.000000000000000e+00
46  0.000000000000000e+00  0.000000000000000e+00  0.000000000000000e+00  0.000000000000000e+00  0.000000000000000e+00  0.000000000000000e+00
47  0.000000000000000e+00  0.000000000000000e+00  0.000000000000000e+00  0.000000000000000e+00  0.000000000000000e+00  0.000000000000000e+00
48  0.000000000000000e+00  0.000000000000000e+00  0.000000000000000e+00  0.000000000000000e+00  0.000000000000000e+00  0.000000000000000e+00
49  0.000000000000000e+00  0.000000000000000e+00  0.000000000000000e+00  0.000000000000000e+00  0.000000000000000e+00  0.000000000000000e+00
50  0.000000000000000e+00  0.000000000000000e+00  0.000000000000000e+00  0.000000000000000e+00  0.000000000000000e+00  0.000000000000000e+00
51  0.000000000000000e+00  0.000000000000000e+00  0.000000000000000e+00  0.000000000000000e+00  0.000000000000000e+00  0.000000000000000e+00
52  0.000000000000000e+00  0.000000000000000e+00  0.000000000000000e+00  0.000000000000000e+00  0.000000000000000e+00  0.000000000000000e+00
53  0.000000000000000e+00  0.000000000000000e+00  0.000000000000000e+00  0.000000000000000e+00  0.000000000000000e+00  0.000000000000000e+00
54  0.000000000000000e+00  0.000000000000000e+00  0.000000000000000e+00  0.000000000000000e+00  0.000000000000000e+00  0.000000000000000e+00
55  0.000000000000000e+00  0.000000000000000e+00  0.000000000000000e+00  0.000000000000000e+00  0.000000000000000e+00  0.000000000000000e+00
56  0.000000000000000e+00  0.000000000000000e+00  0.000000000000000e+00  0.000000000000000e+00  0.000000000000000e+00  0.000000000000000e+00
57  0.000000000000000e+00  0.000000000000000e+00  0.000000000000000e+00  0.000000000000000e+00  0.000000000000000e+00  0.000000000000000e+00
58  0.000000000000000e+00  0.000000000000000e+00  0.000000000000000e+00  0.000000000000000e+00  0.000000000000000e+00  0.000000000000000e+00
59  0.000000000000000e+00  0.000000000000000e+00  0.000000000000000e+00  0.000000000000000e+00  0.000000000000000e+00  0.000000000000000e+00
60  0.000000000000000e+00  0.000000000000000e+00  0.000000000000000e+00  0.000000000000000e+00  0.000000000000000e+00  0.000000000000000e+00
61  0.000000000000000e+00  0.000000000000000e+00  0.000000000000000e+00  0.000000000000000e+00  0.000000000000000e+00  0.000000000000000e+00
62  0.000000000000000e+00  0.000000000000000e+00  0.000000000000000e+00  0.000000000000000e+00  0.000000000000000e+00  0.000000000000000e+00
63  0.000000000000000e+00  0.000000000000000e+00  0.000000000000000e+00  0.000000000000000e+00  0.000000000000000e+00  0.000000000000000e+00
64  0.000000000000000e+00  0.000000000000000e+00  0.000000000000000e+00  0.000000000000000e+00  0.000000000000000e+00  0.000000000000000e+00
65  0.000000000000000e+00  0.000000000000000e+00  0.000000000000000e+00  0.000000000000000e+00  0.000000000000000e+00  0.000000000000000e+00
66  0.000000000000000e+00  0.000000000000000e+00  0.000000000000000e+00  0.000000000000000e+00  0.000000000000000e+00  0.000000000000000e+00
67  0.000000000000000e+00  0.000000000000000e+00  0.000000000000000e+00  0.000000000000000e+00  0.000000000000000e+00  0.000000000000000e+00
68  0.000000000000000e+00  0.000000000000000e+00  0.000000000000000e+00  0.000000000000000e+00  0.000000000000000e+00  0.000000000000000e+00
69  0.000000000000000e+00  0.000000000000000e+00  0.000000000000000e+00  0.000000000000000e+00  0.000000000000000e+00  0.000000000000000e+00
70  0.000000000000000e+00  0.000000000000000e+00  0.000000000000000e+00  0.000000000000000e+00  0.000000000000000e+00  0.000000000000000e+00
71  0.000000000000000e+00  0.000000000000000e+00  0.000000000000000e+00  0.000000000000000e+00  0.000000000000000e+00  0.000000000000000e+00
72  0.000000000000000e+00  0.000000000000000e+00  0.000000000000000e+00  0.000000000000000e+00  0.000000000000000e+00  0.000000000000000e+00
73  0.000000000000000e+00  0.000000000000000e+00  0.000000000000000e+00  0.000000000000000e+00  0.000000000000000e+00  0.000000000000000e+00
74  0.000000000000000e+00  0.000000000000000e+00  0.000000000000000e+00  0.000000000000000e+00  0.000000000000000e+00  0.000000000000000e+00
75  0.000000000000000e+00  0.000000000000000e+00  0.000000000000000e+00  0.000000000000000e+00  0.000000000000000e+00  0.000000000000000e+00
76  0.000000000000000e+00  0.000000000000000e+00  0.000000000000000e+00  0.000000000000000e+00  0.000000000000000e+00  0.000000000000000e+00
77  0.000000000000000e+00  0.000000000000000e+00  0.000000000000000e+00  0.000000000000000e+00  0.000000000000000e+00  0.000000000000000e+00
78  0.000000000000000e+00  0.000000000000000e+00  0.000000000000000e+00  0.000000000000000e+00  0.000000000000000e+00  0.000000000000000e+00
79  0.000000000000000e+00  0.000000000000000e+00  0.000000000000000e+00  0.000000000000000e+00  0.000000000000000e+00  0.000000000000000e+00
80  0.000000000000000e+00  0.000000000000000e+00  0.000000000000000e+00  0.000000000000000e+00  0.000000000000000e+00  0.000000000000000e+00
81  0.000000000000000e+00  0.000000000000000e+00  0.000000000000000e+00  0.000000000000000e+00  0.000000000000000e+00  0.000000000000000e+00
82  0.000000000000000e+00  0.000000000000000e+00  0.000000000000000e+00  0.000000000000000e+00  0.000000000000000e+00  0.000000000000000e+00
83  0.000000000000000e+00  0.000000000000000e+00  0.000000000000000e+00  0.000000000000000e+00  0.000000000000000e+00  0.000000000000000e+00
84  0.000000000000000e+00  0.000000000000000e+00  0.000000000000000e+00  0.000000000000000e+00  0.000000000000000e+00  0.000000000000000e+00
85  0.000000000000000e+00  0.000000000000000e+00  0.000000000000000e+00  0.000000000000000e+00  0.000000000000000e+00  0.000000000000000e+00
86  0.000000000000000e+00  0.000000000000000e+00  0.000000000000000e+00  0.000000000000000e+00  0.000000000000000e+00  0.000000000000000e+00
87  0.000000000000000e+00  0.000000000000000e+00  0.000000000000000e+00  0.000000000000000e+00  0.000000000000000e+00  0.000000000000000e+00
88  0.000000000000000e+00  0.000000000000000e+00  0.000000000000000e+00  0.000000000000000e+00  0.000000000000000e+00  0.000000000000000e+00
89  0.000000000000000e+00  0.000000000000000e+00  0.000000000000000e+00  0.000000000000000e+00  0.000000000000000e+00  0.000000000000000e+00
90  0.000000000000000e+00  0.000000000000000e+00  0.000000000000000e+00  0.000000000000000e+00  0.000000000000000e+00  0.000000000000000e+00
91  0.000000000000000e+00  0.000000000000000e+00  0.000000000000000e+00  0.000000000000000e+00  0.000000000000000e+00  0.000000000000000e+00
92  0.000000000000000e+00  0.000000000000000e+00  0.000000000000000e+00  0.000000000000000e+00  0.000000000000000e+00  0.000000000000000e+00
93  0.000000000000000e+00  0.000000000000000e+00  0.000000000000000e+00  0.000000000000000e+00  0.000000000000000e+00  0.000000000000000e+00
94  0.000000000000000e+00  0.000000000000000e+00  0.000000000000000e+00  0.000000000000000e+00  0.000000000000000e+00  0.000000000000000e+00
95  0.000000000000000e+00  0.000000000000000e+00  0.000000000000000e+00  0.000000000000000e+00  0.000000000000000e+00  0.000000000000000e+00
96  0.000000000000000e+00  0.000000000000000e+00  0.000000000000000e+00  0.000000000000000e+00  0.000000000000000e+00  0.000000000000000e+00
97  0.000000000000000e+00  0.000000000000000e+00  0.000000000000000e+00  0.000000000000000e+00  0.000000000000000e+00  0.000000000000000e+00
98  0.000000000000000e+00  0.000000000000000e+00  0.000000000000000e+00  0.000000000000000e+00  0.000000000000000e+00  0.000000000000000e+00
99  0.000000000000000e+00  0.000000000000000e+00  0.000000000000000e+00  0.000000000000000e+00  0.000000000000000e+00  0.000000000000000e+00
100  0.000000000000000e+00  0.000000000000000e+00  0.000000000000000e+00  0.000000000000000e+00  0.000000000000000e+00  0.000000000000000e+00
101  0.000000000000000e+00  0.000000000000000e+00  0.000000000000000e+00  0.000000000000000e+00  0.000000000000000e+00  0.000000000000000e+00
102  0.000000000000000e+00  0.000000000000000e+00  0.000000000000000e+00  0.000000000000000e+00  0.000000000000000e+00  0.000000000000000e+00
103  0.000000000000000e+00  0.000000000000000e+00  0.000000000000000e+00  0.000000000000000e+00  0.000000000000000e+00  0.000000000000000e+00
104  0.000000000000000e+00  0.000000000000000e+00  0.000000000000000e+00  0.000000000000000e+00  0.000000000000000e+00  0.000000000000000e+00
105  0.000000000000000e+00  0.000000000000000e+00  0.000000000000000e+00  0.000000000000000e+00  0.000000000000000e+00  0.000000000000000e+00
106  0.000000000000000e+00  0.000000000000000e+00  0.000000000000000e+00  0.000000000000000e+00  0.000000000000000e+00  0.000000000000000e+00
107  0.000000000000000e+00  0.000000000000000e+00  0.000000000000000e+00  0.000000000000000e+00  0.000000000000000e+00  0.000000000000000e+00
108  0.000000000000000e+00  0.000000000000000e+00  0.000000000000000e+00  0.000000000000000e+00  0.000000000000000e+00  0.000000000000000e+00
109  0.000000000000000e+00  0.000000000000000e+00  0.000000000000000e+00  0.000000000000000e+00  0.000000000000000e+00  0.000000000000000e+00
110  0.000000000000000e+00  0.000000000000000e+00  0.000000000000000e+00  0.000000000000000e+00  0.000000000000000e+00  0.000000000000000e+00
111  0.000000000000000e+00  0.000000000000000e+00  0.000000000000000e+00  0.000000000000000e+00  0.000000000000000e+00  0.000000000000000e+00
112  0.000000000000000e+00  0.000000000000000e+00  0.000000000000000e+00  0.000000000000000e+00  0.000000000000000e+00  0.000000000000000e+00
113  0.000000000000000e+00  0.000000000000000e+00  0.000000000000000e+00  0.000000000000000e+00  0.000000000000000e+00  0.000000000000000e+00
114  0.000000000000000e+00  0.000000000000000e+00  0.000000000000000e+00  0.000000000000000e+00  0.000000000000000e+00  0.000000000000000e+00
115  0.000000000000000e+00  0.000000000000000e+00  0.000000000000000e+00  0.000000000000000e+00  0.000000000000000e+00  0.000000000000000e+00
116  0.000000000000000e+00  0.000000000000000e+00  0.000000000000000e+00  0.000000000000000e+00  0.000000000000000e+00  0.000000000000000e+00
117  0.000000000000000e+00  0.000000000000000e+00  0.000000000000000e+00  0.000000000000000e+00  0.000000000000000e+00  0.000000000000000e+00
118  0.000000000000000e+00  0.000000000000000e+00  0.000000000000000e+00  0.000000000000000e+00  0.000000000000000e+00  0.000000000000000e+00
119  0.000000000000000e+00  0.000000000000000e+00  0.000000000000000e+00  0.000000000000000e+00  0.000000000000000e+00  0.000000000000000e+00
120  0.000000000000000e+00  0.000000000000000e+00  0.000000000000000e+00  0.000000000000000e+00  0.000000000000000e+00  0.000000000000000e+00
121  0.000000000000000e+00  0.000000000000000e+00  0.000000000000000e+00  0.000000000000000e+00  0.000000000000000e+00  0.000000000000000e+00
122  0.000000000000000e+00  0.000000000000000e+00  0.000000000000000e+00  0.000000000000000e+00  0.000000000000000e+00  0.000000000000000e+00
123  0.000000000000000e+00  0.000000000000000e+00  0.000000000000000e+00  0.000000000000000e+00  0.000000000000000e+00  0.000000000000000e+00
124  0.000000000000000e+00  0.000000000000000e+00  0.000000000000000e+00  0.000000000000000e+00  0.000000000000000e+00  0.000000000000000e+00
125  0.000000000000000e+00  0.000000000000000e+00  0.000000000000000e+00  0.000000000000000e+00  0.000000000000000e+00  0.000000000000000e+00
126  0.000000000000000e+00  0.000000000000000e+00  0.000000000000000e+00  0.000000000000000e+00  0.000000000000000e+00  0.000000000000000e+00
127  0.000000000000000e+00  0.000000000000000e+00  0.000000000000000e+00  0.000000000000000e+00  0.000000000000000e+00  0.000000000000000e+00
128  0.000000000000000e+00  0.000000000000000e+00  0.000000000000000e+00  0.000000000000000e+00  0.000000000000000e+00  0.000000000000000e+00
129  0.000000000000000e+00  0.000000000000000e+00  0.000000000000000e+00  0.000000000000000e+00  0.000000000000000e+00  0.000000000000000e+00