# LAMMPS data file
144 atoms
144 ellipsoids
141 bonds

4 atom types
1 bond types

# System size
0.000000 34.000000 xlo xhi
0.000000 34.000000 ylo yhi
0.000000 34.000000 zlo zhi

Masses

1 3.1575
2 3.1575
3 3.1575
4 3.1575

# Atom-ID, type, position, molecule-ID, ellipsoid flag, density
Atoms

1 3 -6.270099639892578e+00  6.325186252593994e+00  7.565693855285645e+00 1 1 1
2 2 -5.795794963836670e+00  6.073427200317383e+00  7.547986507415771e+00 1 1 1
3 4 -5.468304157257080e+00  5.647543907165527e+00  7.539411067962646e+00 1 1 1
4 1 -5.332628726959229e+00  5.137009620666504e+00  7.441368579864502e+00 1 1 1
5 3 -5.360840320587158e+00  4.663378715515137e+00  7.189247131347656e+00 1 1 1
6 2 -5.462733745574951e+00  4.334246635437012e+00  6.776926994323730e+00 1 1 1
7 1 -5.520127773284912e+00  4.202329635620117e+00  6.259233951568604e+00 1 1 1
8 2 -5.431690216064453e+00  4.245276927947998e+00  5.731038570404053e+00 1 1 1
9 2 -5.151663303375244e+00  4.374519824981689e+00  5.291061878204346e+00 1 1 1
10 4 -4.706859111785889e+00  4.468574523925781e+00  5.004754543304443e+00 1 1 1
11 1 -4.186823368072510e+00  4.419230937957764e+00  4.878790855407715e+00 1 1 1
12 2 -3.709664344787598e+00  4.173027992248535e+00  4.859429359436035e+00 1 1 1
13 2 -3.377222061157227e+00  3.751005172729492e+00  4.851997375488281e+00 1 1 1
14 2 -3.236256361007690e+00  3.241227149963379e+00  4.757526874542236e+00 1 1 1
15 3 -3.260871410369873e+00  2.764977931976318e+00  4.510167121887207e+00 1 1 1
16 4 -3.362237215042114e+00  2.430736064910889e+00  4.101817607879639e+00 1 1 1
17 1 -3.422434568405151e+00  2.293244600296021e+00  3.585912227630615e+00 1 1 1
18 2 -3.339013338088989e+00  2.332330226898193e+00  3.056581974029541e+00 1 1 1
19 3 -3.064269304275513e+00  2.460757493972778e+00  2.613029479980469e+00 1 1 1
20 1 -2.623131513595581e+00  2.557385683059692e+00  2.321955442428589e+00 1 1 1
21 3 -2.103696346282959e+00  2.513137817382812e+00  2.192035675048828e+00 1 1 1
22 1 -1.623781204223633e+00  2.272405862808228e+00  2.170863389968872e+00 1 1 1
23 1 -1.286261081695557e+00  1.854387998580933e+00  2.164562940597534e+00 1 1 1
24 3 -1.139968633651733e+00  1.345452785491943e+00  2.073726892471313e+00 1 1 1
25 3 -1.160961151123047e+00  8.665829896926880e-01  1.830860495567322e+00 1 1 1
26 3 -1.261778116226196e+00  5.273835659027100e-01  1.426533222198486e+00 1 1 1
27 2 -1.324665904045105e+00  3.843827545642853e-01  9.125106334686279e-01 1 1 1
28 1 -1.112744092941284e+00 -7.600854039192200e-01  1.201671361923218e-01 1 1 1
29 1 -9.006161093711853e-01 -1.904698848724365e+00 -6.719107627868652e-01 1 1 1
30 1 -1.115471243858337e+00 -2.127147197723389e+00 -1.111252427101135e+00 1 1 1
31 1 -1.111109852790833e+00 -2.409392833709717e+00 -1.568423032760620e+00 1 1 1
32 4 -9.297276139259338e-01 -2.780076980590820e+00 -1.912471413612366e+00 1 1 1
33 1 -6.807499527931213e-01 -3.234193563461304e+00 -2.055437088012695e+00 1 1 1
34 3 -4.992836713790894e-01 -3.735145807266235e+00 -1.985795259475708e+00 1 1 1
35 4 -4.948847293853760e-01 -4.228348731994629e+00 -1.772741913795471e+00 1 1 1
36 3 -7.097573280334473e-01 -4.662354469299316e+00 -1.539983153343201e+00 1 1 1
37 3 -1.102748513221741e+00 -5.008083820343018e+00 -1.418702960014343e+00 1 1 1
38 3 -1.565114140510559e+00 -5.270054340362549e+00 -1.497797369956970e+00 1 1 1
39 2 -1.961792588233948e+00 -5.484593391418457e+00 -1.789857387542725e+00 1 1 1
40 3 -2.182542085647583e+00 -5.705987453460693e+00 -2.226813793182373e+00 1 1 1
41 3 -2.184077978134155e+00 -5.986049175262451e+00 -2.685355663299561e+00 1 1 1
42 4 -2.006330966949463e+00 -6.354218482971191e+00 -3.034063100814819e+00 1 1 1
43 1 -1.757441043853760e+00 -6.806385040283203e+00 -3.183218240737915e+00 1 1 1
44 4 -1.572418928146362e+00 -7.306704998016357e+00 -3.118860721588135e+00 1 1 1
45 2 -1.562115430831909e+00 -7.800931930541992e+00 -2.908247470855713e+00 1 1 1
46 1 -1.771024227142334e+00 -8.237092971801758e+00 -2.674240827560425e+00 1 1 1
47 4 -2.160305500030518e+00 -8.585396766662598e+00 -2.548361301422119e+00 1 1 1
48 2 -2.622579574584961e+00 -8.849347114562988e+00 -2.621267080307007e+00 1 1 1
49 3  9.663241386413574e+00  4.883362293243408e+00 -6.015388011932373e+00 2 1 1
50 2  9.575000762939453e+00  4.499644756317139e+00 -5.649817466735840e+00 2 1 1
51 4  9.444101333618164e+00  4.306050777435303e+00 -5.166011333465576e+00 2 1 1
52 1  9.202004432678223e+00  4.311501979827881e+00 -4.686383724212646e+00 2 1 1
53 3  8.822666168212891e+00  4.449088096618652e+00 -4.331641197204590e+00 2 1 1
54 2  8.331845283508301e+00  4.601908683776855e+00 -4.175325393676758e+00 2 1 1
55 1  7.797963619232178e+00  4.647182941436768e+00 -4.215238094329834e+00 2 1 1
56 3  7.305583000183105e+00  4.502994537353516e+00 -4.374868392944336e+00 2 1 1
57 2  6.923669815063477e+00  4.159372806549072e+00 -4.532101631164551e+00 2 1 1
58 1  6.679067611694336e+00  3.682106018066406e+00 -4.565885066986084e+00 2 1 1
59 4  6.546573162078857e+00  3.187933683395386e+00 -4.401826858520508e+00 2 1 1
60 1  6.458291530609131e+00  2.799792528152466e+00 -4.040905952453613e+00 2 1 1
61 3  6.329638957977295e+00  2.600470542907715e+00 -3.558845043182373e+00 2 1 1
62 4  6.091286659240723e+00  2.600913047790527e+00 -3.077347517013550e+00 2 1 1
63 3  5.715632438659668e+00  2.736325502395630e+00 -2.717868328094482e+00 2 1 1
64 3  5.227153301239014e+00  2.890437841415405e+00 -2.555645465850830e+00 2 1 1
65 4  4.693356513977051e+00  2.940149784088135e+00 -2.590762376785278e+00 2 1 1
66 2  4.198733329772949e+00  2.801686286926270e+00 -2.748641967773438e+00 2 1 1
67 2  3.813079118728638e+00  2.463001489639282e+00 -2.907746076583862e+00 2 1 1
68 3  3.564824581146240e+00  1.988100171089172e+00 -2.946218729019165e+00 2 1 1
69 4  3.429993629455566e+00  1.492623805999756e+00 -2.788105487823486e+00 2 1 1
70 2  3.341589927673340e+00  1.100116610527039e+00 -2.431955814361572e+00 2 1 1
71 1  3.215119123458862e+00  8.949893712997437e-01 -1.951757907867432e+00 2 1 1
72 1  2.980469465255737e+00  8.904257416725159e-01 -1.468395948410034e+00 2 1 1
73 2  2.608508586883545e+00  1.023475408554077e+00 -1.104226469993591e+00 2 1 1
74 4  2.122419834136963e+00  1.178856372833252e+00 -9.361827373504639e-01 2 1 1
75 2  1.588699698448181e+00  1.232808828353882e+00 -9.665524363517761e-01 2 1 1
76 1  5.038580894470215e-01  1.277505040168762e+00 -7.007643580436707e-02 2 1 1
77 3 -5.808144211769104e-01  1.322093725204468e+00  8.266101479530334e-01 2 1 1
78 2 -1.062057018280029e+00  1.560025930404663e+00  8.487622737884521e-01 2 1 1
79 2 -1.581218361854553e+00  1.601754665374756e+00  9.806610345840454e-01 2 1 1
80 2 -2.020565032958984e+00  1.503887295722961e+00  1.274032473564148e+00 2 1 1
81 4 -2.292612791061401e+00  1.375878691673279e+00  1.719375967979431e+00 2 1 1
82 4 -2.373559474945068e+00  1.338789224624634e+00  2.249239921569824e+00 2 1 1
83 2 -2.312045574188232e+00  1.479052543640137e+00  2.764179229736328e+00 2 1 1
84 4 -2.210894107818604e+00  1.815739989280701e+00  3.170489549636841e+00 2 1 1
85 2 -2.188094139099121e+00  2.293304443359375e+00  3.415655851364136e+00 2 1 1
86 3 -2.331756114959717e+00  2.802716970443726e+00  3.508336067199707e+00 2 1 1
87 4 -2.666734218597412e+00  3.222734212875366e+00  3.515177249908447e+00 2 1 1
88 1 -3.145269632339478e+00  3.466193675994873e+00  3.535430192947388e+00 2 1 1
89 2 -3.665023565292358e+00  3.512978315353394e+00  3.663265705108643e+00 2 1 1
90 3 -4.107971668243408e+00  3.417643070220947e+00  3.952074527740479e+00 2 1 1
91 3 -4.385404109954834e+00  3.288805484771729e+00  4.393780708312988e+00 2 1 1
92 3 -4.471305370330811e+00  3.247737407684326e+00  4.922574996948242e+00 2 1 1
93 4 -4.412472724914551e+00  3.382454156875610e+00  5.439346790313721e+00 2 1 1
94 1 -4.310853958129883e+00  3.714108943939209e+00  5.849686145782471e+00 2 1 1
95 3 -4.284443378448486e+00  4.189104557037354e+00  6.099484920501709e+00 2 1 1
96 3 -4.422769069671631e+00  4.699272632598877e+00  6.195738315582275e+00 2 1 1
97 3 -3.782813072204590e+00 -1.107438659667969e+01 -3.900238513946533e+00 3 1 1
98 2 -3.553237915039062e+00 -1.085436725616455e+01 -3.467131614685059e+00 3 1 1
99 4 -3.151342391967773e+00 -1.063890743255615e+01 -3.183132886886597e+00 3 1 1
100 1 -2.689115047454834e+00 -1.037398242950439e+01 -3.113228797912598e+00 3 1 1
101 3 -2.301778316497803e+00 -1.002439212799072e+01 -3.241413831710815e+00 3 1 1
102 2 -2.095854043960571e+00 -9.587157249450684e+00 -3.476006507873535e+00 3 1 1
103 1 -2.109023332595825e+00 -9.092444419860840e+00 -3.685332059860229e+00 3 1 1
104 3 -2.295829057693481e+00 -8.592494964599609e+00 -3.746978282928467e+00 3 1 1
105 1 -2.544673919677734e+00 -8.141263961791992e+00 -3.594762563705444e+00 3 1 1
106 4 -2.720522642135620e+00 -7.774452686309814e+00 -3.243820667266846e+00 3 1 1
107 3 -2.716003656387329e+00 -7.495449066162109e+00 -2.784637212753296e+00 3 1 1
108 1 -2.492329597473145e+00 -7.274554729461670e+00 -2.348957538604736e+00 3 1 1
109 4 -2.093872547149658e+00 -7.059705257415771e+00 -2.059533357620239e+00 3 1 1
110 1 -1.631495237350464e+00 -6.796748638153076e+00 -1.983494281768799e+00 3 1 1
111 2 -1.240393161773682e+00 -6.449712276458740e+00 -2.107084274291992e+00 3 1 1
112 2 -1.028496503829956e+00 -6.014614582061768e+00 -2.340500593185425e+00 3 1 1
113 3 -1.035823106765747e+00 -5.520892620086670e+00 -2.552329540252686e+00 3 1 1
114 2 -1.219069242477417e+00 -5.020310878753662e+00 -2.619324684143066e+00 3 1 1
115 2 -1.468065500259399e+00 -4.567107200622559e+00 -2.473300695419312e+00 3 1 1
116 2 -1.647625088691711e+00 -4.197724342346191e+00 -2.126886844635010e+00 3 1 1
117 1 -1.649070858955383e+00 -3.916593313217163e+00 -1.669005155563354e+00 3 1 1
118 2 -1.431235790252686e+00 -3.694652795791626e+00 -1.230888247489929e+00 3 1 1
119 4 -1.036337971687317e+00 -3.480423450469971e+00 -9.361225962638855e-01 3 1 1
120 1 -5.739879608154297e-01 -3.219428777694702e+00 -8.539652228355408e-01 3 1 1
121 4 -1.791516244411469e-01 -2.874996423721313e+00 -9.728967547416687e-01 3 1 1
122 4  3.867441788315773e-02 -2.442060470581055e+00 -1.204939246177673e+00 3 1 1
123 4  3.719330206513405e-02 -1.949331283569336e+00 -1.419218659400940e+00 3 1 1
124 1  9.103996157646179e-01 -8.496378660202026e-01 -1.523098468780518e+00 3 1 1
125 3  1.783232331275940e+00  2.503069043159485e-01 -1.627455711364746e+00 3 1 1
126 1  1.871702671051025e+00  6.449443697929382e-01 -1.981168508529663e+00 3 1 1
127 3  2.007729530334473e+00  1.141013622283936e+00 -2.136356353759766e+00 3 1 1
128 4  2.257897853851318e+00  1.614802956581116e+00 -2.095484018325806e+00 3 1 1
129 4  2.645305156707764e+00  1.950912952423096e+00 -1.935539007186890e+00 3 1 1
130 3  3.141023397445679e+00  2.086490392684937e+00 -1.778625845909119e+00 3 1 1
131 1  3.674803018569946e+00  2.034720659255981e+00 -1.745826721191406e+00 3 1 1
132 2  4.162101745605469e+00  1.879872322082520e+00 -1.911002039909363e+00 3 1 1
133 3  4.535921573638916e+00  1.745643496513367e+00 -2.272823095321655e+00 3 1 1
134 3  4.772375106811523e+00  1.747700691223145e+00 -2.755290269851685e+00 3 1 1
135 1  4.900001049041748e+00  1.949941873550415e+00 -3.236452102661133e+00 3 1 1
136 2  4.988284587860107e+00  2.340260505676270e+00 -3.594979286193848e+00 3 1 1
137 2  5.121917247772217e+00  2.835101366043091e+00 -3.756071567535400e+00 3 1 1
138 1  5.368380546569824e+00  3.311182498931885e+00 -3.719953298568726e+00 3 1 1
139 2  5.752154350280762e+00  3.652365684509277e+00 -3.561749219894409e+00 3 1 1
140 4  6.245621204376221e+00  3.793660402297974e+00 -3.402974367141724e+00 3 1 1
141 1  6.779483795166016e+00  3.746201992034912e+00 -3.365426778793335e+00 3 1 1
142 4  7.269165039062500e+00  3.592712640762329e+00 -3.524773359298706e+00 3 1 1
143 3  7.646667957305908e+00  3.456180572509766e+00 -3.881848812103271e+00 3 1 1
144 2  7.886903285980225e+00  3.453238010406494e+00 -4.362401485443115e+00 3 1 1

# Atom-ID, translational, rotational velocity
Velocities

1  0.000000000000000e+00  0.000000000000000e+00  0.000000000000000e+00  0.000000000000000e+00  0.000000000000000e+00  0.000000000000000e+00
2  0.000000000000000e+00  0.000000000000000e+00  0.000000000000000e+00  0.000000000000000e+00  0.000000000000000e+00  0.000000000000000e+00
3  0.000000000000000e+00  0.000000000000000e+00  0.000000000000000e+00  0.000000000000000e+00  0.000000000000000e+00  0.000000000000000e+00
4  0.000000000000000e+00  0.000000000000000e+00  0.000000000000000e+00  0.000000000000000e+00  0.000000000000000e+00  0.000000000000000e+00
5  0.000000000000000e+00  0.000000000000000e+00  0.000000000000000e+00  0.000000000000000e+00  0.000000000000000e+00  0.000000000000000e+00
6  0.000000000000000e+00  0.000000000000000e+00  0.000000000000000e+00  0.000000000000000e+00  0.000000000000000e+00  0.000000000000000e+00
7  0.000000000000000e+00  0.000000000000000e+00  0.000000000000000e+00  0.000000000000000e+00  0.000000000000000e+00  0.000000000000000e+00
8  0.000000000000000e+00  0.000000000000000e+00  0.000000000000000e+00  0.000000000000000e+00  0.000000000000000e+00  0.000000000000000e+00
9  0.000000000000000e+00  0.000000000000000e+00  0.000000000000000e+00  0.000000000000000e+00  0.000000000000000e+00  0.000000000000000e+00
10  0.000000000000000e+00  0.000000000000000e+00  0.000000000000000e+00  0.000000000000000e+00  0.000000000000000e+00  0.000000000000000e+00
11  0.000000000000000e+00  0.000000000000000e+00  0.000000000000000e+00  0.000000000000000e+00  0.000000000000000e+00  0.000000000000000e+00
12  0.000000000000000e+00  0.000000000000000e+00  0.000000000000000e+00  0.000000000000000e+00  0.000000000000000e+00  0.000000000000000e+00
13  0.000000000000000e+00  0.000000000000000e+00  0.000000000000000e+00  0.000000000000000e+00  0.000000000000000e+00  0.000000000000000e+00
14  0.000000000000000e+00  0.000000000000000e+00  0.000000000000000e+00  0.000000000000000e+00  0.000000000000000e+00  0.000000000000000e+00
15  0.000000000000000e+00  0.000000000000000e+00  0.000000000000000e+00  0.000000000000000e+00  0.000000000000000e+00  0.000000000000000e+00
16  0.000000000000000e+00  0.000000000000000e+00  0.000000000000000e+00  0.000000000000000e+00  0.000000000000000e+00  0.000000000000000e+00
17  0.000000000000000e+00  0.000000000000000e+00  0.000000000000000e+00  0.000000000000000e+00  0.000000000000000e+00  0.000000000000000e+00
18  0.000000000000000e+00  0.000000000000000e+00  0.000000000000000e+00  0.000000000000000e+00  0.000000000000000e+00  0.000000000000000e+00
19  0.000000000000000e+00  0.000000000000000e+00  0.000000000000000e+00  0.000000000000000e+00  0.000000000000000e+00  0.000000000000000e+00
20  0.000000000000000e+00  0.000000000000000e+00  0.000000000000000e+00  0.000000000000000e+00  0.000000000000000e+00  0.000000000000000e+00
21  0.000000000000000e+00  0.000000000000000e+00  0.000000000000000e+00  0.000000000000000e+00  0.000000000000000e+00  0.000000000000000e+00
22  0.000000000000000e+00  0.000000000000000e+00  0.000000000000000e+00  0.000000000000000e+00  0.000000000000000e+00  0.000000000000000e+00
23  0.000000000000000e+00  0.000000000000000e+00  0.000000000000000e+00  0.000000000000000e+00  0.000000000000000e+00  0.000000000000000e+00
24  0.000000000000000e+00  0.000000000000000e+00  0.000000000000000e+00  0.000000000000000e+00  0.000000000000000e+00  0.000000000000000e+00
25  0.000000000000000e+00  0.000000000000000e+00  0.000000000000000e+00  0.000000000000000e+00  0.000000000000000e+00  0.000000000000000e+00
26  0.000000000000000e+00  0.000000000000000e+00  0.000000000000000e+00  0.000000000000000e+00  0.000000000000000e+00  0.000000000000000e+00
27  0.000000000000000e+00  0.000000000000000e+00  0.000000000000000e+00  0.000000000000000e+00  0.000000000000000e+00  0.000000000000000e+00
28  0.000000000000000e+00  0.000000000000000e+00  0.000000000000000e+00  0.000000000000000e+00  0.000000000000000e+00  0.000000000000000e+00
29  0.000000000000000e+00  0.000000000000000e+00  0.000000000000000e+00  0.000000000000000e+00  0.000000000000000e+00  0.000000000000000e+00
30  0.000000000000000e+00  0.000000000000000e+00  0.000000000000000e+00  0.000000000000000e+00  0.000000000000000e+00  0.000000000000000e+00
31  0.000000000000000e+00  0.000000000000000e+00  0.000000000000000e+00  0.000000000000000e+00  0.000000000000000e+00  0.000000000000000e+00
32  0.000000000000000e+00  0.000000000000000e+00  0.000000000000000e+00  0.000000000000000e+00  0.000000000000000e+00  0.000000000000000e+00
33  0.000000000000000e+00  0.000000000000000e+00  0.000000000000000e+00  0.000000000000000e+00  0.000000000000000e+00  0.000000000000000e+00
34  0.000000000000000e+00  0.000000000000000e+00  0.000000000000000e+00  0.000000000000000e+00  0.000000000000000e+00  0.000000000000000e+00
35  0.000000000000000e+00  0.000000000000000e+00  0.000000000000000e+00  0.000000000000000e+00  0.000000000000000e+00  0.000000000000000e+00
36  0.000000000000000e+00  0.000000000000000e+00  0.000000000000000e+00  0.000000000000000e+00  0.000000000000000e+00  0.000000000000000e+00
37  0.000000000000000e+00  0.000000000000000e+00  0.000000000000000e+00  0.000000000000000e+00  0.000000000000000e+00  0.000000000000000e+00
38  0.000000000000000e+00  0.000000000000000e+00  0.000000000000000e+00  0.000000000000000e+00  0.000000000000000e+00  0.000000000000000e+00
39  0.000000000000000e+00  0.000000000000000e+00  0.000000000000000e+00  0.000000000000000e+00  0.000000000000000e+00  0.000000000000000e+00
40  0.000000000000000e+00  0.000000000000000e+00  0.000000000000000e+00  0.000000000000000e+00  0.000000000000000e+00  0.000000000000000e+00
41  0.000000000000000e+00  0.000000000000000e+00  0.000000000000000e+00  0.000000000000000e+00  0.000000000000000e+00  0.000000000000000e+00
42  0.000000000000000e+00  0.000000000000000e+00  0.000000000000000e+00  0.000000000000000e+00  0.000000000000000e+00  0.000000000000000e+00
43  0.000000000000000e+00  0.000000000000000e+00  0.000000000000000e+00  0.000000000000000e+00  0.000000000000000e+00  0.000000000000000e+00
44  0.000000000000000e+00  0.000000000000000e+00  0.000000000000000e+00  0.000000000000000e+00  0.000000000000000e+00  0.000000000000000e+00
45  0.000000000000000e+00  0.000000000000000e+00  0.000000000000000e+00  0.000000000000000e+00  0.000000000000000e+00  0.000000000000000e+00
46  0.000000000000000e+00  0.000000000000000e+00  0.000000000000000e+00  0.000000000000000e+00  0.000000000000000e+00  0.000000000000000e+00
47  0.000000000000000e+00  0.000000000000000e+00  0.000000000000000e+00  0.000000000000000e+00  0.000000000000000e+00  0.000000000000000e+00
48  0.000000000000000e+00  0.000000000000000e+00  0.000000000000000e+00  0.000000000000000e+00  0.000000000000000e+00  0.000000000000000e+00
49  0.000000000000000e+00  0.000000000000000e+00  0.000000000000000e+00  0.000000000000000e+00  0.000000000000000e+00  0.000000000000000e+00
50  0.000000000000000e+00  0.000000000000000e+00  0.000000000000000e+00  0.000000000000000e+00  0.000000000000000e+00  0.000000000000000e+00
51  0.000000000000000e+00  0.000000000000000e+00  0.000000000000000e+00  0.000000000000000e+00  0.000000000000000e+00  0.000000000000000e+00
52  0.000000000000000e+00  0.000000000000000e+00  0.000000000000000e+00  0.000000000000000e+00  0.000000000000000e+00  0.000000000000000e+00
53  0.000000000000000e+00  0.000000000000000e+00  0.000000000000000e+00  0.000000000000000e+00  0.000000000000000e+00  0.000000000000000e+00
54  0.000000000000000e+00  0.000000000000000e+00  0.000000000000000e+00  0.000000000000000e+00  0.000000000000000e+00  0.000000000000000e+00
55  0.000000000000000e+00  0.000000000000000e+00  0.000000000000000e+00  0.000000000000000e+00  0.000000000000000e+00  0.000000000000000e+00
56  0.000000000000000e+00  0.000000000000000e+00  0.000000000000000e+00  0.000000000000000e+00  0.000000000000000e+00  0.000000000000000e+00
57  0.000000000000000e+00  0.000000000000000e+00  0.000000000000000e+00  0.000000000000000e+00  0.000000000000000e+00  0.000000000000000e+00
58  0.000000000000000e+00  0.000000000000000e+00  0.000000000000000e+00  0.000000000000000e+00  0.000000000000000e+00  0.000000000000000e+00
59  0.000000000000000e+00  0.000000000000000e+00  0.000000000000000e+00  0.000000000000000e+00  0.000000000000000e+00  0.000000000000000e+00
60  0.000000000000000e+00  0.000000000000000e+00  0.000000000000000e+00  0.000000000000000e+00  0.000000000000000e+00  0.000000000000000e+00
61  0.000000000000000e+00  0.000000000000000e+00  0.000000000000000e+00  0.000000000000000e+00  0.000000000000000e+00  0.000000000000000e+00
62  0.000000000000000e+00  0.000000000000000e+00  0.000000000000000e+00  0.000000000000000e+00  0.000000000000000e+00  0.000000000000000e+00
63  0.000000000000000e+00  0.000000000000000e+00  0.000000000000000e+00  0.000000000000000e+00  0.000000000000000e+00  0.000000000000000e+00
64  0.000000000000000e+00  0.000000000000000e+00  0.000000000000000e+00  0.000000000000000e+00  0.000000000000000e+00  0.000000000000000e+00
65  0.000000000000000e+00  0.000000000000000e+00  0.000000000000000e+00  0.000000000000000e+00  0.000000000000000e+00  0.000000000000000e+00
66  0.000000000000000e+00  0.000000000000000e+00  0.000000000000000e+00  0.000000000000000e+00  0.000000000000000e+00  0.000000000000000e+00
67  0.000000000000000e+00  0.000000000000000e+00  0.000000000000000e+00  0.000000000000000e+00  0.000000000000000e+00  0.000000000000000e+00
68  0.000000000000000e+00  0.000000000000000e+00  0.000000000000000e+00  0.000000000000000e+00  0.000000000000000e+00  0.000000000000000e+00
69  0.000000000000000e+00  0.000000000000000e+00  0.000000000000000e+00  0.000000000000000e+00  0.000000000000000e+00  0.000000000000000e+00
70  0.000000000000000e+00  0.000000000000000e+00  0.000000000000000e+00  0.000000000000000e+00  0.000000000000000e+00  0.000000000000000e+00
71  0.000000000000000e+00  0.000000000000000e+00  0.000000000000000e+00  0.000000000000000e+00  0.000000000000000e+00  0.000000000000000e+00
72  0.000000000000000e+00  0.000000000000000e+00  0.000000000000000e+00  0.000000000000000e+00  0.000000000000000e+00  0.000000000000000e+00
73  0.000000000000000e+00  0.000000000000000e+00  0.000000000000000e+00  0.000000000000000e+00  0.000000000000000e+00  0.000000000000000e+00
74  0.000000000000000e+00  0.000000000000000e+00  0.000000000000000e+00  0.000000000000000e+00  0.000000000000000e+00  0.000000000000000e+00
75  0.000000000000000e+00  0.000000000000000e+00  0.000000000000000e+00  0.000000000000000e+00  0.000000000000000e+00  0.000000000000000e+00
76  0.000000000000000e+00  0.000000000000000e+00  0.000000000000000e+00  0.000000000000000e+00  0.000000000000000e+00  0.000000000000000e+00
77  0.000000000000000e+00  0.000000000000000e+00  0.000000000000000e+00  0.000000000000000e+00  0.000000000000000e+00  0.000000000000000e+00
78  0.000000000000000e+00  0.000000000000000e+00  0.000000000000000e+00  0.000000000000000e+00  0.000000000000000e+00  0.000000000000000e+00
79  0.000000000000000e+00  0.000000000000000e+00  0.000000000000000e+00  0.000000000000000e+00  0.000000000000000e+00  0.000000000000000e+00
80  0.000000000000000e+00  0.000000000000000e+00  0.000000000000000e+00  0.000000000000000e+00  0.000000000000000e+00  0.000000000000000e+00
81  0.000000000000000e+00  0.000000000000000e+00  0.000000000000000e+00  0.000000000000000e+00  0.000000000000000e+00  0.000000000000000e+00
82  0.000000000000000e+00  0.000000000000000e+00  0.000000000000000e+00  0.000000000000000e+00  0.000000000000000e+00  0.000000000000000e+00
83  0.000000000000000e+00  0.000000000000000e+00  0.000000000000000e+00  0.000000000000000e+00  0.000000000000000e+00  0.000000000000000e+00
84  0.000000000000000e+00  0.000000000000000e+00  0.000000000000000e+00  0.000000000000000e+00  0.000000000000000e+00  0.000000000000000e+00
85  0.000000000000000e+00  0.000000000000000e+00  0.000000000000000e+00  0.000000000000000e+00  0.000000000000000e+00  0.000000000000000e+00
86  0.000000000000000e+00  0.000000000000000e+00  0.000000000000000e+00  0.000000000000000e+00  0.000000000000000e+00  0.000000000000000e+00
87  0.000000000000000e+00  0.000000000000000e+00  0.000000000000000e+00  0.000000000000000e+00  0.000000000000000e+00  0.000000000000000e+00
88  0.000000000000000e+00  0.000000000000000e+00  0.000000000000000e+00  0.000000000000000e+00  0.000000000000000e+00  0.000000000000000e+00
89  0.000000000000000e+00  0.000000000000000e+00  0.000000000000000e+00  0.000000000000000e+00  0.000000000000000e+00  0.000000000000000e+00
90  0.000000000000000e+00  0.000000000000000e+00  0.000000000000000e+00  0.000000000000000e+00  0.000000000000000e+00  0.000000000000000e+00
91  0.000000000000000e+00  0.000000000000000e+00  0.000000000000000e+00  0.000000000000000e+00  0.000000000000000e+00  0.000000000000000e+00
92  0.000000000000000e+00  0.000000000000000e+00  0.000000000000000e+00  0.000000000000000e+00  0.000000000000000e+00  0.000000000000000e+00
93  0.000000000000000e+00  0.000000000000000e+00  0.000000000000000e+00  0.000000000000000e+00  0.000000000000000e+00  0.000000000000000e+00
94  0.000000000000000e+00  0.000000000000000e+00  0.000000000000000e+00  0.000000000000000e+00  0.000000000000000e+00  0.000000000000000e+00
95  0.000000000000000e+00  0.000000000000000e+00  0.000000000000000e+00  0.000000000000000e+00  0.000000000000000e+00  0.000000000000000e+00
96  0.000000000000000e+00  0.000000000000000e+00  0.000000000000000e+00  0.000000000000000e+00  0.000000000000000e+00  0.000000000000000e+00
97  0.000000000000000e+00  0.000000000000000e+00  0.000000000000000e+00  0.000000000000000e+00  0.000000000000000e+00  0.000000000000000e+00
98  0.000000000000000e+00  0.000000000000000e+00  0.000000000000000e+00  0.000000000000000e+00  0.000000000000000e+00  0.000000000000000e+00
99  0.000000000000000e+00  0.000000000000000e+00  0.000000000000000e+00  0.000000000000000e+00  0.000000000000000e+00  0.000000000000000e+00
100  0.000000000000000e+00  0.000000000000000e+00  0.000000000000000e+00  0.000000000000000e+00  0.000000000000000e+00  0.000000000000000e+00
101  0.000000000000000e+00  0.000000000000000e+00  0.000000000000000e+00  0.000000000000000e+00  0.000000000000000e+00  0.000000000000000e+00
102  0.000000000000000e+00  0.000000000000000e+00  0.000000000000000e+00  0.000000000000000e+00  0.000000000000000e+00  0.000000000000000e+00
103  0.000000000000000e+00  0.000000000000000e+00  0.000000000000000e+00  0.000000000000000e+00  0.000000000000000e+00  0.000000000000000e+00
104  0.000000000000000e+00  0.000000000000000e+00  0.000000000000000e+00  0.000000000000000e+00  0.000000000000000e+00  0.000000000000000e+00
105  0.000000000000000e+00  0.000000000000000e+00  0.000000000000000e+00  0.000000000000000e+00  0.000000000000000e+00  0.000000000000000e+00
106  0.000000000000000e+00  0.000000000000000e+00  0.000000000000000e+00  0.000000000000000e+00  0.000000000000000e+00  0.000000000000000e+00
107  0.000000000000000e+00  0.000000000000000e+00  0.000000000000000e+00  0.000000000000000e+00  0.000000000000000e+00  0.000000000000000e+00
108  0.000000000000000e+00  0.000000000000000e+00  0.000000000000000e+00  0.000000000000000e+00  0.000000000000000e+00  0.000000000000000e+00
109  0.000000000000000e+00  0.000000000000000e+00  0.000000000000000e+00  0.000000000000000e+00  0.000000000000000e+00  0.000000000000000e+00
110  0.000000000000000e+00  0.000000000000000e+00  0.000000000000000e+00  0.000000000000000e+00  0.000000000000000e+00  0.000000000000000e+00
111  0.000000000000000e+00  0.000000000000000e+00  0.000000000000000e+00  0.000000000000000e+00  0.000000000000000e+00  0.000000000000000e+00
112  0.000000000000000e+00  0.000000000000000e+00  0.000000000000000e+00  0.000000000000000e+00  0.000000000000000e+00  0.000000000000000e+00
113  0.000000000000000e+00  0.000000000000000e+00  0.000000000000000e+00  0.000000000000000e+00  0.000000000000000e+00  0.000000000000000e+00
114  0.000000000000000e+00  0.000000000000000e+00  0.000000000000000e+00  0.000000000000000e+00  0.000000000000000e+00  0.000000000000000e+00
115  0.000000000000000e+00  0.000000000000000e+00  0.000000000000000e+00  0.000000000000000e+00  0.000000000000000e+00  0.000000000000000e+00
116  0.000000000000000e+00  0.000000000000000e+00  0.000000000000000e+00  0.000000000000000e+00  0.000000000000000e+00  0.000000000000000e+00
117  0.000000000000000e+00  0.000000000000000e+00  0.000000000000000e+00  0.000000000000000e+00  0.000000000000000e+00  0.000000000000000e+00
118  0.000000000000000e+00  0.000000000000000e+00  0.000000000000000e+00  0.000000000000000e+00  0.000000000000000e+00  0.000000000000000e+00
119  0.000000000000000e+00  0.000000000000000e+00  0.000000000000000e+00  0.000000000000000e+00  0.000000000000000e+00  0.000000000000000e+00
120  0.000000000000000e+00  0.000000000000000e+00  0.000000000000000e+00  0.000000000000000e+00  0.000000000000000e+00  0.000000000000000e+00
121  0.000000000000000e+00  0.000000000000000e+00  0.000000000000000e+00  0.000000000000000e+00  0.000000000000000e+00  0.000000000000000e+00
122  0.000000000000000e+00  0.000000000000000e+00  0.000000000000000e+00  0.000000000000000e+00  0.000000000000000e+00  0.000000000000000e+00
123  0.000000000000000e+00  0.000000000000000e+00  0.000000000000000e+00  0.000000000000000e+00  0.000000000000000e+00  0.000000000000000e+00
124  0.000000000000000e+00  0.000000000000000e+00  0.000000000000000e+00  0.000000000000000e+00  0.000000000000000e+00  0.000000000000000e+00
125  0.000000000000000e+00  0.000000000000000e+00  0.000000000000000e+00  0.000000000000000e+00  0.000000000000000e+00  0.000000000000000e+00
126  0.000000000000000e+00  0.000000000000000e+00  0.000000000000000e+00  0.000000000000000e+00  0.000000000000000e+00  0.000000000000000e+00
127  0.000000000000000e+00  0.000000000000000e+00  0.000000000000000e+00  0.000000000000000e+00  0.000000000000000e+00  0.000000000000000e+00
128  0.000000000000000e+00  0.000000000000000e+00  0.000000000000000e+00  0.000000000000000e+00  0.000000000000000e+00  0.000000000000000e+00