# LAMMPS data file
147 atoms
147 ellipsoids
144 bonds

4 atom types
1 bond types

# System size
-30 30 xlo xhi
-30 30 ylo yhi
-30 30 zlo zhi

Masses

1 3.1575
2 3.1575
3 3.1575
4 3.1575

# Atom-ID, type, position, molecule-ID, ellipsoid flag, density
Atoms

1 3  1.069192504882812e+01  2.909461259841919e+00  3.562152385711670e+00 1 1 1
2 2  1.038324642181396e+01  2.604252099990845e+00  3.247408151626587e+00 1 1 1
3 4  1.000268936157227e+01  2.240583181381226e+00  3.138597965240479e+00 1 1 1
4 1  9.553448677062988e+00  1.960130691528320e+00  3.233586788177490e+00 1 1 1
5 3  9.067749023437500e+00  1.871962308883667e+00  3.442842721939087e+00 1 1 1
6 2  8.588618278503418e+00  2.011482715606689e+00  3.643995046615601e+00 1 1 1
7 1  8.158650398254395e+00  2.328071594238281e+00  3.710798978805542e+00 1 1 1
8 2  7.802782058715820e+00  2.702431917190552e+00  3.568886756896973e+00 1 1 1
9 2  7.513676643371582e+00  2.995518445968628e+00  3.223529577255249e+00 1 1 1
10 2  7.261276721954346e+00  3.098592042922974e+00  2.759758949279785e+00 1 1 1
11 2  7.002431392669678e+00  2.975380659103394e+00  2.305520296096802e+00 1 1 1
12 4  6.696427822113037e+00  2.676012277603149e+00  1.984059333801270e+00 1 1 1
13 1  6.316676616668701e+00  2.310648441314697e+00  1.872233033180237e+00 1 1 1
14 3  5.870280265808105e+00  2.026248216629028e+00  1.959362030029297e+00 1 1 1
15 3  5.384963512420654e+00  1.931853055953979e+00  2.169200897216797e+00 1 1 1
16 4  4.905066967010498e+00  2.065342426300049e+00  2.372671842575073e+00 1 1 1
17 1  4.474411487579346e+00  2.377684831619263e+00  2.443037748336792e+00 1 1 1
18 2  4.114283084869385e+00  2.753032922744751e+00  2.307226896286011e+00 1 1 1
19 3  3.823965549468994e+00  3.050870656967163e+00  1.967469215393066e+00 1 1 1
20 2  3.571519613265991e+00  3.160016059875488e+00  1.505326032638550e+00 1 1 1
21 4  3.314038753509521e+00  3.043617725372314e+00  1.049397110939026e+00 1 1 1
22 4  3.008562803268433e+00  2.744269847869873e+00  7.240802645683289e-01 1 1 1
23 1  2.631960153579712e+00  2.381043434143066e+00  6.033921241760254e-01 1 1 1
24 1  2.187144994735718e+00  2.091834545135498e+00  6.864511966705322e-01 1 1 1
25 3  1.701669692993164e+00  1.991810798645020e+00  8.953364491462708e-01 1 1 1
26 3  1.220829367637634e+00  2.117861032485962e+00  1.098937153816223e+00 1 1 1
27 2  7.890701889991760e-01  2.427788972854614e+00  1.175290107727051e+00 1 1 1
28 1  4.269137382507324e-01  2.803086042404175e+00  1.046039104461670e+00 1 1 1
29 1  1.340172737836838e-01  3.105181932449341e+00  7.113683223724365e-01 1 1 1
30 1 -8.919489383697510e-01  3.316696405410767e+00  8.300797343254089e-01 1 1 1
31 1 -1.304883718490601e+00  3.658020257949829e+00  7.873631119728088e-01 1 1 1
32 4 -1.821090102195740e+00  3.796525239944458e+00  7.369157671928406e-01 1 1 1
33 4 -2.352557420730591e+00  3.731613159179688e+00  7.880342006683350e-01 1 1 1
34 2 -2.801743984222412e+00  3.538385629653931e+00  1.008583188056946e+00 1 1 1
35 3 -3.106661558151245e+00  3.341668844223022e+00  1.405491828918457e+00 1 1 1
36 1 -3.256912469863892e+00  3.268865823745728e+00  1.915753960609436e+00 1 1 1
37 1 -3.302219629287720e+00  3.397126197814941e+00  2.435581684112549e+00 1 1 1
38 3 -3.331851959228516e+00  3.730841636657715e+00  2.855450630187988e+00 1 1 1
39 3 -3.440621137619019e+00  4.192262172698975e+00  3.106431007385254e+00 1 1 1
40 2 -3.694845914840698e+00  4.660689353942871e+00  3.181155681610107e+00 1 1 1
41 3 -4.102950572967529e+00  5.006612300872803e+00  3.140450954437256e+00 1 1 1
42 2 -4.618415355682373e+00  5.151998519897461e+00  3.089996099472046e+00 1 1 1
43 2 -5.149666309356689e+00  5.091867923736572e+00  3.135814666748047e+00 1 1 1
44 4 -5.603893280029297e+00  4.900500774383545e+00  3.352226972579956e+00 1 1 1
45 1 -5.912873744964600e+00  4.702860832214355e+00  3.743767499923706e+00 1 1 1
46 3 -6.066087245941162e+00  4.623859882354736e+00  4.252724647521973e+00 1 1 1
47 3 -6.113445281982422e+00  4.745848178863525e+00  4.773782253265381e+00 1 1 1
48 4 -6.141855716705322e+00  5.073958396911621e+00  5.197586059570312e+00 1 1 1
49 2 -6.247420787811279e+00  5.534777641296387e+00  5.454166412353516e+00 1 1 1
50 3 -2.170710086822510e+00  1.846242785453796e+00 -1.130209827423096e+01 2 1 1
51 2 -2.407937526702881e+00  1.704419255256653e+00 -1.084015655517578e+01 2 1 1
52 4 -2.476860046386719e+00  1.409759044647217e+00 -1.039608573913574e+01 2 1 1
53 1 -2.322003602981567e+00  1.091901063919067e+00 -9.993443489074707e+00 2 1 1
54 3 -1.976186990737915e+00  8.871200680732727e-01 -9.636652946472168e+00 2 1 1
55 2 -1.541563153266907e+00  8.876414299011230e-01 -9.319775581359863e+00 2 1 1
56 1 -1.156019210815430e+00  1.111623167991638e+00 -9.018859863281250e+00 2 1 1
57 3 -9.389327168464661e-01  1.487265110015869e+00 -8.702527999877930e+00 2 1 1
58 2 -9.474661946296692e-01  1.889802813529968e+00 -8.346435546875000e+00 2 1 1
59 2 -1.146810293197632e+00  2.181333780288696e+00 -7.941795825958252e+00 2 1 1
60 2 -1.434223175048828e+00  2.267162084579468e+00 -7.496972560882568e+00 2 1 1
61 4 -1.675955653190613e+00  2.129661798477173e+00 -7.036436557769775e+00 2 1 1
62 1 -1.751869797706604e+00  1.838372707366943e+00 -6.591537475585938e+00 2 1 1
63 3 -1.602485537528992e+00  1.518527865409851e+00 -6.184059143066406e+00 2 1 1
64 3 -1.260045528411865e+00  1.309319853782654e+00 -5.829082965850830e+00 2 1 1
65 3 -8.270270228385925e-01  1.305447936058044e+00 -5.511530399322510e+00 2 1 1
66 4 -4.393254816532135e-01  1.522539496421814e+00 -5.210041046142578e+00 2 1 1
67 2 -2.166605442762375e-01  1.897007107734680e+00 -4.894170284271240e+00 2 1 1
68 2 -2.168834060430527e-01  2.299052476882935e+00 -4.540007591247559e+00 2 1 1
69 2 -4.119843840599060e-01  2.595871448516846e+00 -4.135800838470459e+00 2 1 1
70 4 -7.000576853752136e-01  2.687451362609863e+00 -3.691384077072144e+00 2 1 1
71 4 -9.457190036773682e-01  2.555548906326294e+00 -3.232497215270996e+00 2 1 1
72 1 -1.024822115898132e+00  2.268106937408447e+00 -2.786650896072388e+00 2 1 1
73 1 -8.826092481613159e-01  1.947233438491821e+00 -2.378916978836060e+00 2 1 1
74 3 -5.462326407432556e-01  1.731509208679199e+00 -2.020364046096802e+00 2 1 1
75 4 -1.127884387969971e-01  1.721398949623108e+00 -1.700761198997498e+00 2 1 1
76 2  2.782236337661743e-01  1.934569358825684e+00 -1.401731491088867e+00 2 1 1
77 1  5.057995319366455e-01  2.304153203964233e+00 -1.086842060089111e+00 2 1 1
78 1  5.133825540542603e-01  2.708987236022949e+00 -7.330845594406128e-01 2 1 1
79 3  1.165409326553345e+00  2.779100656509399e+00  9.234630316495895e-02 2 1 1
80 2  1.469024896621704e+00  3.075700044631958e+00  4.216761887073517e-01 2 1 1
81 2  1.727560639381409e+00  3.191588401794434e+00  8.797861337661743e-01 2 1 1
82 4  1.979818105697632e+00  3.079486608505249e+00  1.340396165847778e+00 2 1 1
83 4  2.270724058151245e+00  2.776808738708496e+00  1.676407456398010e+00 2 1 1
84 1  2.630514621734619e+00  2.402651309967041e+00  1.810475230216980e+00 2 1 1
85 1  3.062070846557617e+00  2.092571735382080e+00  1.736029267311096e+00 2 1 1
86 3  3.542574167251587e+00  1.961483120918274e+00  1.532035470008850e+00 2 1 1
87 2  4.028353691101074e+00  2.059074163436890e+00  1.324151277542114e+00 2 1 1
88 3  4.474212169647217e+00  2.346921205520630e+00  1.237050414085388e+00 2 1 1
89 4  4.852763175964355e+00  2.708162069320679e+00  1.353309392929077e+00 2 1 1
90 1  5.158751964569092e+00  3.010261535644531e+00  1.678413748741150e+00 2 1 1
91 2  5.416692733764648e+00  3.131122350692749e+00  2.133026838302612e+00 2 1 1
92 2  5.667786121368408e+00  3.024131298065186e+00  2.595739841461182e+00 2 1 1
93 4  5.959056854248047e+00  2.727946519851685e+00  2.939047574996948e+00 2 1 1
94 1  6.317387104034424e+00  2.352389335632324e+00  3.077061653137207e+00 2 1 1
95 3  6.747494697570801e+00  2.037563562393188e+00  3.008671283721924e+00 2 1 1
96 3  7.226317405700684e+00  1.901324987411499e+00  2.805791616439819e+00 2 1 1
97 3  7.712041854858398e+00  1.992675423622131e+00  2.597061634063721e+00 2 1 1
98 3  8.158704757690430e+00  2.275068521499634e+00  2.506577253341675e+00 2 1 1
99 3 -8.300985336303711e+00  7.030090808868408e+00  6.670952796936035e+00 3 1 1
100 2 -7.898263931274414e+00  6.675592422485352e+00  6.707684040069580e+00 3 1 1
101 4 -7.651641368865967e+00  6.206427097320557e+00  6.627843379974365e+00 3 1 1
102 1 -7.547595024108887e+00  5.747349262237549e+00  6.368820667266846e+00 3 1 1
103 3 -7.519641876220703e+00  5.421133518218994e+00  5.942771434783936e+00 3 1 1
104 2 -7.472195625305176e+00  5.301472663879395e+00  5.420843124389648e+00 3 1 1
105 1 -7.315508365631104e+00  5.382875919342041e+00  4.913516044616699e+00 3 1 1
106 3 -7.004309177398682e+00  5.581570625305176e+00  4.523808956146240e+00 3 1 1
107 1 -6.549051284790039e+00  5.771270275115967e+00  4.310322761535645e+00 3 1 1
108 2 -6.016204833984375e+00  5.829299926757812e+00  4.265169620513916e+00 3 1 1
109 2 -5.503395080566406e+00  5.681213378906250e+00  4.317609310150146e+00 3 1 1
110 4 -5.096706867218018e+00  5.332422733306885e+00  4.357925415039062e+00 3 1 1
111 1 -4.844374656677246e+00  4.863924503326416e+00  4.280311584472656e+00 3 1 1
112 3 -4.737245082855225e+00  4.402478218078613e+00  4.027050018310547e+00 3 1 1
113 3 -4.707888126373291e+00  4.071162223815918e+00  3.604815721511841e+00 3 1 1
114 2 -4.662462711334229e+00  3.946552038192749e+00  3.084408044815063e+00 3 1 1
115 3 -4.509942531585693e+00  4.021956443786621e+00  2.574343919754028e+00 3 1 1
116 2 -4.203112125396729e+00  4.219676971435547e+00  2.180465221405029e+00 3 1 1
117 2 -3.751189470291138e+00  4.411860942840576e+00  1.961467981338501e+00 3 1 1
118 4 -3.219817399978638e+00  4.474318504333496e+00  1.913485765457153e+00 3 1 1
119 4 -2.703380107879639e+00  4.331969738006592e+00  1.963429570198059e+00 3 1 1
120 2 -2.293750286102295e+00  3.988439798355103e+00  2.005293607711792e+00 3 1 1
121 3 -2.038399219512939e+00  3.521529912948608e+00  1.933414936065674e+00 3 1 1
122 1 -1.926646709442139e+00  3.058104753494263e+00  1.685071825981140e+00 3 1 1
123 1 -1.896306991577148e+00  2.722972631454468e+00  1.267208695411682e+00 3 1 1
124 4 -1.852583408355713e+00  2.591424942016602e+00  7.472094297409058e-01 3 1 1
125 4 -1.704689741134644e+00  2.662124633789062e+00  2.358909100294113e-01 3 1 1
126 1 -1.401658892631531e+00  2.856997013092041e+00 -1.622890830039978e-01 3 1 1
127 1 -9.537274241447449e-01  3.051742553710938e+00 -3.858530521392822e-01 3 1 1
128 3 -5.793517827987671e-01  2.769750833511353e+00 -1.331253886222839e+00 3 1 1
129 1 -3.336679339408875e-01  2.898383617401123e+00 -1.790085911750793e+00 3 1 1
130 2 -4.458626732230186e-02  2.802700281143188e+00 -2.233272790908813e+00 3 1 1
131 4  1.474492251873016e-01  2.505201578140259e+00 -2.636229038238525e+00 3 1 1
132 4  1.442903429269791e-01  2.100935935974121e+00 -2.990619182586670e+00 3 1 1
133 1 -8.003336191177368e-02  1.727400541305542e+00 -3.306210756301880e+00 3 1 1
134 1 -4.685427844524384e-01  1.512616872787476e+00 -3.607147455215454e+00 3 1 1
135 3 -9.019094705581665e-01  1.521075010299683e+00 -3.923866033554077e+00 3 1 1
136 3 -1.242652297019958e+00  1.731956958770752e+00 -4.281118392944336e+00 3 1 1
137 3 -1.388088583946228e+00  2.053859233856201e+00 -4.688436508178711e+00 3 1 1
138 1 -1.311323881149292e+00  2.342206239700317e+00 -5.133847236633301e+00 3 1 1
139 2 -1.068045139312744e+00  2.476088762283325e+00 -5.594532012939453e+00 3 1 1
140 2 -7.787407040596008e-01  2.388804912567139e+00 -6.039569377899170e+00 3 1 1
141 2 -5.815654993057251e-01  2.094391584396362e+00 -6.442177772521973e+00 3 1 1
142 4 -5.780296325683594e-01  1.692232847213745e+00 -6.796599864959717e+00 3 1 1
143 1 -7.979593276977539e-01  1.317238330841064e+00 -7.114129543304443e+00 3 1 1
144 3 -1.184437990188599e+00  1.095911622047424e+00 -7.415619850158691e+00 3 1 1
145 3 -1.618259072303772e+00  1.097786188125610e+00 -7.731457233428955e+00 3 1 1
146 3 -1.962598204612732e+00  1.305805087089539e+00 -8.087671279907227e+00 3 1 1
147 2 -2.113562345504761e+00  1.623872041702271e+00 -8.494749069213867e+00 3 1 1

# Atom-ID, translational, rotational velocity
Velocities

1  0.000000000000000e+00  0.000000000000000e+00  0.000000000000000e+00  0.000000000000000e+00  0.000000000000000e+00  0.000000000000000e+00
2  0.000000000000000e+00  0.000000000000000e+00  0.000000000000000e+00  0.000000000000000e+00  0.000000000000000e+00  0.000000000000000e+00
3  0.000000000000000e+00  0.000000000000000e+00  0.000000000000000e+00  0.000000000000000e+00  0.000000000000000e+00  0.000000000000000e+00
4  0.000000000000000e+00  0.000000000000000e+00  0.000000000000000e+00  0.000000000000000e+00  0.000000000000000e+00  0.000000000000000e+00
5  0.000000000000000e+00  0.000000000000000e+00  0.000000000000000e+00  0.000000000000000e+00  0.000000000000000e+00  0.000000000000000e+00
6  0.000000000000000e+00  0.000000000000000e+00  0.000000000000000e+00  0.000000000000000e+00  0.000000000000000e+00  0.000000000000000e+00
7  0.000000000000000e+00  0.000000000000000e+00  0.000000000000000e+00  0.000000000000000e+00  0.000000000000000e+00  0.000000000000000e+00
8  0.000000000000000e+00  0.000000000000000e+00  0.000000000000000e+00  0.000000000000000e+00  0.000000000000000e+00  0.000000000000000e+00
9  0.000000000000000e+00  0.000000000000000e+00  0.000000000000000e+00  0.000000000000000e+00  0.000000000000000e+00  0.000000000000000e+00
10  0.000000000000000e+00  0.000000000000000e+00  0.000000000000000e+00  0.000000000000000e+00  0.000000000000000e+00  0.000000000000000e+00
11  0.000000000000000e+00  0.000000000000000e+00  0.000000000000000e+00  0.000000000000000e+00  0.000000000000000e+00  0.000000000000000e+00
12  0.000000000000000e+00  0.000000000000000e+00  0.000000000000000e+00  0.000000000000000e+00  0.000000000000000e+00  0.000000000000000e+00
13  0.000000000000000e+00  0.000000000000000e+00  0.000000000000000e+00  0.000000000000000e+00  0.000000000000000e+00  0.000000000000000e+00
14  0.000000000000000e+00  0.000000000000000e+00  0.000000000000000e+00  0.000000000000000e+00  0.000000000000000e+00  0.000000000000000e+00
15  0.000000000000000e+00  0.000000000000000e+00  0.000000000000000e+00  0.000000000000000e+00  0.000000000000000e+00  0.000000000000000e+00
16  0.000000000000000e+00  0.000000000000000e+00  0.000000000000000e+00  0.000000000000000e+00  0.000000000000000e+00  0.000000000000000e+00
17  0.000000000000000e+00  0.000000000000000e+00  0.000000000000000e+00  0.000000000000000e+00  0.000000000000000e+00  0.000000000000000e+00
18  0.000000000000000e+00  0.000000000000000e+00  0.000000000000000e+00  0.000000000000000e+00  0.000000000000000e+00  0.000000000000000e+00
19  0.000000000000000e+00  0.000000000000000e+00  0.000000000000000e+00  0.000000000000000e+00  0.000000000000000e+00  0.000000000000000e+00
20  0.000000000000000e+00  0.000000000000000e+00  0.000000000000000e+00  0.000000000000000e+00  0.000000000000000e+00  0.000000000000000e+00
21  0.000000000000000e+00  0.000000000000000e+00  0.000000000000000e+00  0.000000000000000e+00  0.000000000000000e+00  0.000000000000000e+00
22  0.000000000000000e+00  0.000000000000000e+00  0.000000000000000e+00  0.000000000000000e+00  0.000000000000000e+00  0.000000000000000e+00
23  0.000000000000000e+00  0.000000000000000e+00  0.000000000000000e+00  0.000000000000000e+00  0.000000000000000e+00  0.000000000000000e+00
24  0.000000000000000e+00  0.000000000000000e+00  0.000000000000000e+00  0.000000000000000e+00  0.000000000000000e+00  0.000000000000000e+00
25  0.000000000000000e+00  0.000000000000000e+00  0.000000000000000e+00  0.000000000000000e+00  0.000000000000000e+00  0.000000000000000e+00
26  0.000000000000000e+00  0.000000000000000e+00  0.000000000000000e+00  0.000000000000000e+00  0.000000000000000e+00  0.000000000000000e+00
27  0.000000000000000e+00  0.000000000000000e+00  0.000000000000000e+00  0.000000000000000e+00  0.000000000000000e+00  0.000000000000000e+00
28  0.000000000000000e+00  0.000000000000000e+00  0.000000000000000e+00  0.000000000000000e+00  0.000000000000000e+00  0.000000000000000e+00
29  0.000000000000000e+00  0.000000000000000e+00  0.000000000000000e+00  0.000000000000000e+00  0.000000000000000e+00  0.000000000000000e+00
30  0.000000000000000e+00  0.000000000000000e+00  0.000000000000000e+00  0.000000000000000e+00  0.000000000000000e+00  0.000000000000000e+00
31  0.000000000000000e+00  0.000000000000000e+00  0.000000000000000e+00  0.000000000000000e+00  0.000000000000000e+00  0.000000000000000e+00
32  0.000000000000000e+00  0.000000000000000e+00  0.000000000000000e+00  0.000000000000000e+00  0.000000000000000e+00  0.000000000000000e+00
33  0.000000000000000e+00  0.000000000000000e+00  0.000000000000000e+00  0.000000000000000e+00  0.000000000000000e+00  0.000000000000000e+00
34  0.000000000000000e+00  0.000000000000000e+00  0.000000000000000e+00  0.000000000000000e+00  0.000000000000000e+00  0.000000000000000e+00
35  0.000000000000000e+00  0.000000000000000e+00  0.000000000000000e+00  0.000000000000000e+00  0.000000000000000e+00  0.000000000000000e+00
36  0.000000000000000e+00  0.000000000000000e+00  0.000000000000000e+00  0.000000000000000e+00  0.000000000000000e+00  0.000000000000000e+00
37  0.000000000000000e+00  0.000000000000000e+00  0.000000000000000e+00  0.000000000000000e+00  0.000000000000000e+00  0.000000000000000e+00
38  0.000000000000000e+00  0.000000000000000e+00  0.000000000000000e+00  0.000000000000000e+00  0.000000000000000e+00  0.000000000000000e+00
39  0.000000000000000e+00  0.000000000000000e+00  0.000000000000000e+00  0.000000000000000e+00  0.000000000000000e+00  0.000000000000000e+00
40  0.000000000000000e+00  0.000000000000000e+00  0.000000000000000e+00  0.000000000000000e+00  0.000000000000000e+00  0.000000000000000e+00
41  0.000000000000000e+00  0.000000000000000e+00  0.000000000000000e+00  0.000000000000000e+00  0.000000000000000e+00  0.000000000000000e+00
42  0.000000000000000e+00  0.000000000000000e+00  0.000000000000000e+00  0.000000000000000e+00  0.000000000000000e+00  0.000000000000000e+00
43  0.000000000000000e+00  0.000000000000000e+00  0.000000000000000e+00  0.000000000000000e+00  0.000000000000000e+00  0.000000000000000e+00
44  0.000000000000000e+00  0.000000000000000e+00  0.000000000000000e+00  0.000000000000000e+00  0.000000000000000e+00  0.000000000000000e+00
45  0.000000000000000e+00  0.000000000000000e+00  0.000000000000000e+00  0.000000000000000e+00  0.000000000000000e+00  0.000000000000000e+00
46  0.000000000000000e+00  0.000000000000000e+00  0.000000000000000e+00  0.000000000000000e+00  0.000000000000000e+00  0.000000000000000e+00
47  0.000000000000000e+00  0.000000000000000e+00  0.000000000000000e+00  0.000000000000000e+00  0.000000000000000e+00  0.000000000000000e+00
48  0.000000000000000e+00  0.000000000000000e+00  0.000000000000000e+00  0.000000000000000e+00  0.000000000000000e+00  0.000000000000000e+00
49  0.000000000000000e+00  0.000000000000000e+00  0.000000000000000e+00  0.000000000000000e+00  0.000000000000000e+00  0.000000000000000e+00
50  0.000000000000000e+00  0.000000000000000e+00  0.000000000000000e+00  0.000000000000000e+00  0.000000000000000e+00  0.000000000000000e+00
51  0.000000000000000e+00  0.000000000000000e+00  0.000000000000000e+00  0.000000000000000e+00  0.000000000000000e+00  0.000000000000000e+00
52  0.000000000000000e+00  0.000000000000000e+00  0.000000000000000e+00  0.000000000000000e+00  0.000000000000000e+00  0.000000000000000e+00
53  0.000000000000000e+00  0.000000000000000e+00  0.000000000000000e+00  0.000000000000000e+00  0.000000000000000e+00  0.000000000000000e+00
54  0.000000000000000e+00  0.000000000000000e+00  0.000000000000000e+00  0.000000000000000e+00  0.000000000000000e+00  0.000000000000000e+00
55  0.000000000000000e+00  0.000000000000000e+00  0.000000000000000e+00  0.000000000000000e+00  0.000000000000000e+00  0.000000000000000e+00
56  0.000000000000000e+00  0.000000000000000e+00  0.000000000000000e+00  0.000000000000000e+00  0.000000000000000e+00  0.000000000000000e+00
57  0.000000000000000e+00  0.000000000000000e+00  0.000000000000000e+00  0.000000000000000e+00  0.000000000000000e+00  0.000000000000000e+00
58  0.000000000000000e+00  0.000000000000000e+00  0.000000000000000e+00  0.000000000000000e+00  0.000000000000000e+00  0.000000000000000e+00
59  0.000000000000000e+00  0.000000000000000e+00  0.000000000000000e+00  0.000000000000000e+00  0.000000000000000e+00  0.000000000000000e+00
60  0.000000000000000e+00  0.000000000000000e+00  0.000000000000000e+00  0.000000000000000e+00  0.000000000000000e+00  0.000000000000000e+00
61  0.000000000000000e+00  0.000000000000000e+00  0.000000000000000e+00  0.000000000000000e+00  0.000000000000000e+00  0.000000000000000e+00
62  0.000000000000000e+00  0.000000000000000e+00  0.000000000000000e+00  0.000000000000000e+00  0.000000000000000e+00  0.000000000000000e+00
63  0.000000000000000e+00  0.000000000000000e+00  0.000000000000000e+00  0.000000000000000e+00  0.000000000000000e+00  0.000000000000000e+00
64  0.000000000000000e+00  0.000000000000000e+00  0.000000000000000e+00  0.000000000000000e+00  0.000000000000000e+00  0.000000000000000e+00
65  0.000000000000000e+00  0.000000000000000e+00  0.000000000000000e+00  0.000000000000000e+00  0.000000000000000e+00  0.000000000000000e+00
66  0.000000000000000e+00  0.000000000000000e+00  0.000000000000000e+00  0.000000000000000e+00  0.000000000000000e+00  0.000000000000000e+00
67  0.000000000000000e+00  0.000000000000000e+00  0.000000000000000e+00  0.000000000000000e+00  0.000000000000000e+00  0.000000000000000e+00
68  0.000000000000000e+00  0.000000000000000e+00  0.000000000000000e+00  0.000000000000000e+00  0.000000000000000e+00  0.000000000000000e+00
69  0.000000000000000e+00  0.000000000000000e+00  0.000000000000000e+00  0.000000000000000e+00  0.000000000000000e+00  0.000000000000000e+00
70  0.000000000000000e+00  0.000000000000000e+00  0.000000000000000e+00  0.000000000000000e+00  0.000000000000000e+00  0.000000000000000e+00
71  0.000000000000000e+00  0.000000000000000e+00  0.000000000000000e+00  0.000000000000000e+00  0.000000000000000e+00  0.000000000000000e+00
72  0.000000000000000e+00  0.000000000000000e+00  0.000000000000000e+00  0.000000000000000e+00  0.000000000000000e+00  0.000000000000000e+00
73  0.000000000000000e+00  0.000000000000000e+00  0.000000000000000e+00  0.000000000000000e+00  0.000000000000000e+00  0.000000000000000e+00
74  0.000000000000000e+00  0.000000000000000e+00  0.000000000000000e+00  0.000000000000000e+00  0.000000000000000e+00  0.000000000000000e+00
75  0.000000000000000e+00  0.000000000000000e+00  0.000000000000000e+00  0.000000000000000e+00  0.000000000000000e+00  0.000000000000000e+00
76  0.000000000000000e+00  0.000000000000000e+00  0.000000000000000e+00  0.000000000000000e+00  0.000000000000000e+00  0.000000000000000e+00
77  0.000000000000000e+00  0.000000000000000e+00  0.000000000000000e+00  0.000000000000000e+00  0.000000000000000e+00  0.000000000000000e+00
78  0.000000000000000e+00  0.000000000000000e+00  0.000000000000000e+00  0.000000000000000e+00  0.000000000000000e+00  0.000000000000000e+00
79  0.000000000000000e+00  0.000000000000000e+00  0.000000000000000e+00  0.000000000000000e+00  0.000000000000000e+00  0.000000000000000e+00
80  0.000000000000000e+00  0.000000000000000e+00  0.000000000000000e+00  0.000000000000000e+00  0.000000000000000e+00  0.000000000000000e+00
81  0.000000000000000e+00  0.000000000000000e+00  0.000000000000000e+00  0.000000000000000e+00  0.000000000000000e+00  0.000000000000000e+00
82  0.000000000000000e+00  0.000000000000000e+00  0.000000000000000e+00  0.000000000000000e+00  0.000000000000000e+00  0.000000000000000e+00
83  0.000000000000000e+00  0.000000000000000e+00  0.000000000000000e+00  0.000000000000000e+00  0.000000000000000e+00  0.000000000000000e+00
84  0.000000000000000e+00  0.000000000000000e+00  0.000000000000000e+00  0.000000000000000e+00  0.000000000000000e+00  0.000000000000000e+00
85  0.000000000000000e+00  0.000000000000000e+00  0.000000000000000e+00  0.000000000000000e+00  0.000000000000000e+00  0.000000000000000e+00
86  0.000000000000000e+00  0.000000000000000e+00  0.000000000000000e+00  0.000000000000000e+00  0.000000000000000e+00  0.000000000000000e+00
87  0.000000000000000e+00  0.000000000000000e+00  0.000000000000000e+00  0.000000000000000e+00  0.000000000000000e+00  0.000000000000000e+00
88  0.000000000000000e+00  0.000000000000000e+00  0.000000000000000e+00  0.000000000000000e+00  0.000000000000000e+00  0.000000000000000e+00
89  0.000000000000000e+00  0.000000000000000e+00  0.000000000000000e+00  0.000000000000000e+00  0.000000000000000e+00  0.000000000000000e+00
90  0.000000000000000e+00  0.000000000000000e+00  0.000000000000000e+00  0.000000000000000e+00  0.000000000000000e+00  0.000000000000000e+00
91  0.000000000000000e+00  0.000000000000000e+00  0.000000000000000e+00  0.000000000000000e+00  0.000000000000000e+00  0.000000000000000e+00
92  0.000000000000000e+00  0.000000000000000e+00  0.000000000000000e+00  0.000000000000000e+00  0.000000000000000e+00  0.000000000000000e+00
93  0.000000000000000e+00  0.000000000000000e+00  0.000000000000000e+00  0.000000000000000e+00  0.000000000000000e+00  0.000000000000000e+00
94  0.000000000000000e+00  0.000000000000000e+00  0.000000000000000e+00  0.000000000000000e+00  0.000000000000000e+00  0.000000000000000e+00
95  0.000000000000000e+00  0.000000000000000e+00  0.000000000000000e+00  0.000000000000000e+00  0.000000000000000e+00  0.000000000000000e+00
96  0.000000000000000e+00  0.000000000000000e+00  0.000000000000000e+00  0.000000000000000e+00  0.000000000000000e+00  0.000000000000000e+00
97  0.000000000000000e+00  0.000000000000000e+00  0.000000000000000e+00  0.000000000000000e+00  0.000000000000000e+00  0.000000000000000e+00
98  0.000000000000000e+00  0.000000000000000e+00  0.000000000000000e+00  0.000000000000000e+00  0.000000000000000e+00  0.000000000000000e+00
99  0.000000000000000e+00  0.000000000000000e+00  0.000000000000000e+00  0.000000000000000e+00  0.000000000000000e+00  0.000000000000000e+00
100  0.000000000000000e+00  0.000000000000000e+00  0.000000000000000e+00  0.000000000000000e+00  0.000000000000000e+00  0.000000000000000e+00
101  0.000000000000000e+00  0.000000000000000e+00  0.000000000000000e+00  0.000000000000000e+00  0.000000000000000e+00  0.000000000000000e+00
102  0.000000000000000e+00  0.000000000000000e+00  0.000000000000000e+00  0.000000000000000e+00  0.000000000000000e+00  0.000000000000000e+00
103  0.000000000000000e+00  0.000000000000000e+00  0.000000000000000e+00  0.000000000000000e+00  0.000000000000000e+00  0.000000000000000e+00
104  0.000000000000000e+00  0.000000000000000e+00  0.000000000000000e+00  0.000000000000000e+00  0.000000000000000e+00  0.000000000000000e+00
105  0.000000000000000e+00  0.000000000000000e+00  0.000000000000000e+00  0.000000000000000e+00  0.000000000000000e+00  0.000000000000000e+00
106  0.000000000000000e+00  0.000000000000000e+00  0.000000000000000e+00  0.000000000000000e+00  0.000000000000000e+00  0.000000000000000e+00
107  0.000000000000000e+00  0.000000000000000e+00  0.000000000000000e+00  0.000000000000000e+00  0.000000000000000e+00  0.000000000000000e+00
108  0.000000000000000e+00  0.000000000000000e+00  0.000000000000000e+00  0.000000000000000e+00  0.000000000000000e+00  0.000000000000000e+00
109  0.000000000000000e+00  0.000000000000000e+00  0.000000000000000e+00  0.000000000000000e+00  0.000000000000000e+00  0.000000000000000e+00
110  0.000000000000000e+00  0.000000000000000e+00  0.000000000000000e+00  0.000000000000000e+00  0.000000000000000e+00  0.000000000000000e+00
111  0.000000000000000e+00  0.000000000000000e+00  0.000000000000000e+00  0.000000000000000e+00  0.000000000000000e+00  0.000000000000000e+00
112  0.000000000000000e+00  0.000000000000000e+00  0.000000000000000e+00  0.000000000000000e+00  0.000000000000000e+00  0.000000000000000e+00
113  0.000000000000000e+00  0.000000000000000e+00  0.000000000000000e+00  0.000000000000000e+00  0.000000000000000e+00  0.000000000000000e+00
114  0.000000000000000e+00  0.000000000000000e+00  0.000000000000000e+00  0.000000000000000e+00  0.000000000000000e+00  0.000000000000000e+00
115  0.000000000000000e+00  0.000000000000000e+00  0.000000000000000e+00  0.000000000000000e+00  0.000000000000000e+00  0.000000000000000e+00
116  0.000000000000000e+00  0.000000000000000e+00  0.000000000000000e+00  0.000000000000000e+00  0.000000000000000e+00  0.000000000000000e+00
117  0.000000000000000e+00  0.000000000000000e+00  0.000000000000000e+00  0.000000000000000e+00  0.000000000000000e+00  0.000000000000000e+00
118  0.000000000000000e+00  0.000000000000000e+00  0.000000000000000e+00  0.000000000000000e+00  0.000000000000000e+00  0.000000000000000e+00
119  0.000000000000000e+00  0.000000000000000e+00  0.000000000000000e+00  0.000000000000000e+00  0.000000000000000e+00  0.000000000000000e+00
120  0.000000000000000e+00  0.000000000000000e+00  0.000000000000000e+00  0.000000000000000e+00  0.000000000000000e+00  0.000000000000000e+00
121  0.000000000000000e+00  0.000000000000000e+00  0.000000000000000e+00  0.000000000000000e+00  0.000000000000000e+00  0.000000000000000e+00
122  0.000000000000000e+00  0.000000000000000e+00  0.000000000000000e+00  0.000000000000000e+00  0.000000000000000e+00  0.000000000000000e+00
123  0.000000000000000e+00  0.000000000000000e+00  0.000000000000000e+00  0.000000000000000e+00  0.000000000000000e+00  0.000000000000000e+00
124  0.000000000000000e+00  0.000000000000000e+00  0.000000000000000e+00  0.000000000000000e+00  0.000000000000000e+00  0.000000000000000e+00
125  0.000000000000000e+00  0.000000000000000e+00  0.000000000000000e+00  0.000000000000000e+00  0.000000000000000e+00  0.000000000000000e+00
126  0.000000000000000e+00  0.000000000000000e+00  0.000000000000000e+00  0.000000000000000e+00  0.000000000000000e+00  0.000000000000000e+00