# LAMMPS data file
141 atoms
141 ellipsoids
138 bonds

4 atom types
1 bond types

# System size
0.000000 50.000000 xlo xhi
0.000000 50.000000 ylo yhi
0.000000 50.000000 zlo zhi

Masses

1 3.1575
2 3.1575
3 3.1575
4 3.1575

# Atom-ID, type, position, molecule-ID, ellipsoid flag, density
Atoms

1 3  9.004322886466980e-01 -7.274706363677979e+00  3.946468830108643e+00 1 1 1
2 2  5.150950551033020e-01 -6.939176082611084e+00  4.112663269042969e+00 1 1 1
3 4  2.784851789474487e-01 -6.595750808715820e+00  4.451426029205322e+00 1 1 1
4 1  2.623052000999451e-01 -6.228215694427490e+00  4.843011379241943e+00 1 1 1
5 3  4.545118808746338e-01 -5.829527378082275e+00  5.147621631622314e+00 1 1 1
6 2  7.638937234878540e-01 -5.404467105865479e+00  5.258495330810547e+00 1 1 1
7 1  1.054720044136047e+00 -4.967837810516357e+00  5.142462730407715e+00 1 1 1
8 3  1.198312401771545e+00 -4.538848400115967e+00  4.852581501007080e+00 1 1 1
9 1  1.121926784515381e+00 -4.133787155151367e+00  4.507938385009766e+00 1 1 1
10 4  8.363950252532959e-01 -3.759869575500488e+00  4.248437881469727e+00 1 1 1
11 3  4.320035874843597e-01 -3.412464141845703e+00  4.181629657745361e+00 1 1 1
12 1  4.419947788119316e-02 -3.076878070831299e+00  4.341863155364990e+00 1 1 1
13 4 -1.978749036788940e-01 -2.733921766281128e+00  4.677224159240723e+00 1 1 1
14 1 -2.204411476850510e-01 -2.367208719253540e+00  5.069266319274902e+00 1 1 1
15 2 -3.311586752533913e-02 -1.969375610351562e+00  5.378009796142578e+00 1 1 1
16 2  2.747434079647064e-01 -1.544885754585266e+00  5.495124340057373e+00 1 1 1
17 3  5.679861307144165e-01 -1.108326792716980e+00  5.385077476501465e+00 1 1 1
18 2  7.170137763023376e-01 -6.788710355758667e-01  5.098648071289062e+00 1 1 1
19 2  6.470191478729248e-01 -2.729958891868591e-01  4.753609657287598e+00 1 1 1
20 2  3.664039671421051e-01  1.017838567495346e-01  4.490018367767334e+00 1 1 1
21 1 -3.641067445278168e-02  4.497640132904053e-01  4.416977405548096e+00 1 1 1
22 2 -4.265789389610291e-01  7.854257225990295e-01  4.571202754974365e+00 1 1 1
23 4 -6.740591526031494e-01  1.127926111221313e+00  4.903066158294678e+00 1 1 1
24 1 -7.030193805694580e-01  1.493825435638428e+00  5.295446395874023e+00 1 1 1
25 4 -5.206470489501953e-01  1.890794634819031e+00  5.608242034912109e+00 1 1 1
26 4 -2.144183218479156e-01  2.314705133438110e+00  5.731576442718506e+00 1 1 1
27 4  8.113548159599304e-02  2.751183509826660e+00  5.627555370330811e+00 1 1 1
28 3 -2.669594287872314e-01  5.883735656738281e+00  3.116059541702271e+00 1 1 1
29 1 -3.599274456501007e-01  6.335953712463379e+00  2.841219663619995e+00 1 1 1
30 3 -2.455999553203583e-01  6.826128959655762e+00  2.653216838836670e+00 1 1 1
31 4  7.604768872261047e-02  7.226131916046143e+00  2.494401216506958e+00 1 1 1
32 4  5.262613892555237e-01  7.442100524902344e+00  2.296010732650757e+00 1 1 1
33 3  9.774044752120972e-01  7.450084686279297e+00  2.004334926605225e+00 1 1 1
34 1  1.301556944847107e+00  7.305154323577881e+00  1.601086020469666e+00 1 1 1
35 2  1.418991923332214e+00  7.120471477508545e+00  1.110384702682495e+00 1 1 1
36 3  1.328541040420532e+00  7.024298667907715e+00  5.895665287971497e-01 1 1 1
37 3  1.107986092567444e+00  7.111279010772705e+00  1.074103787541389e-01 1 1 1
38 1  8.845914602279663e-01  7.406470298767090e+00 -2.820047140121460e-01 1 1 1
39 2  7.866415381431580e-01  7.855822086334229e+00 -5.598174333572388e-01 1 1 1
40 2  8.948022723197937e-01  8.346717834472656e+00 -7.495616078376770e-01 1 1 1
41 1  1.211422324180603e+00  8.750766754150391e+00 -9.082530736923218e-01 1 1 1
42 2  1.659658312797546e+00  8.972561836242676e+00 -1.104683518409729e+00 1 1 1
43 4  2.112627506256104e+00  8.985935211181641e+00 -1.393324732780457e+00 1 1 1
44 1  2.441723108291626e+00  8.843923568725586e+00 -1.793594241142273e+00 1 1 1
45 4  2.565318584442139e+00  8.658565521240234e+00 -2.282531261444092e+00 1 1 1
46 3  2.479923963546753e+00  8.558383941650391e+00 -2.803436040878296e+00 1 1 1
47 2  2.261419534683228e+00  8.639554977416992e+00 -3.287535429000854e+00 1 1 1
48 3 -4.517737388610840e+00  7.937404632568359e+00  1.638672828674316e+01 2 1 1
49 2 -4.735471725463867e+00  7.803254127502441e+00  1.591419029235840e+01 2 1 1
50 4 -4.893106937408447e+00  7.886290073394775e+00  1.540731334686279e+01 2 1 1
51 1 -4.881157398223877e+00  8.119867324829102e+00  1.492359161376953e+01 2 1 1
52 3 -4.654554367065430e+00  8.380164146423340e+00  1.451178359985352e+01 2 1 1
53 2 -4.249772548675537e+00  8.533173561096191e+00  1.419330310821533e+01 2 1 1
54 1 -3.771008253097534e+00  8.485690116882324e+00  1.395411396026611e+01 2 1 1
55 2 -3.350538969039917e+00  8.220639228820801e+00  1.375004863739014e+01 2 1 1
56 2 -3.098507642745972e+00  7.803653240203857e+00  1.352359962463379e+01 2 1 1
57 4 -3.061056375503540e+00  7.358034133911133e+00  1.322576236724854e+01 2 1 1
58 1 -3.202814817428589e+00  7.017996311187744e+00  1.283464241027832e+01 2 1 1
59 2 -3.420317411422729e+00  6.877632617950439e+00  1.236381816864014e+01 2 1 1
60 2 -3.581327676773071e+00  6.955167770385742e+00  1.185712146759033e+01 2 1 1
61 2 -3.575076580047607e+00  7.186058521270752e+00  1.137201404571533e+01 2 1 1
62 3 -3.354333162307739e+00  7.447492599487305e+00  1.095776271820068e+01 2 1 1
63 4 -2.953361272811890e+00  7.605060100555420e+00  1.063670921325684e+01 2 1 1
64 1 -2.474876403808594e+00  7.563774585723877e+00  1.039579772949219e+01 2 1 1
65 2 -2.051077365875244e+00  7.304263591766357e+00  1.019150352478027e+01 2 1 1
66 3 -1.793365716934204e+00  6.890011310577393e+00  9.966436386108398e+00 2 1 1
67 1 -1.750037312507629e+00  6.443298339843750e+00  9.671035766601562e+00 2 1 1
68 3 -1.887956023216248e+00  6.098752498626709e+00  9.282514572143555e+00 2 1 1
69 1 -2.105113506317139e+00  5.952175617218018e+00  8.813430786132812e+00 2 1 1
70 1 -2.269415855407715e+00  6.024164676666260e+00  8.306953430175781e+00 2 1 1
71 3 -2.268825292587280e+00  6.252274513244629e+00  7.820501327514648e+00 2 1 1
72 3 -2.053972721099854e+00  6.514746665954590e+00  7.403801918029785e+00 2 1 1
73 3 -1.656873583793640e+00  6.676764488220215e+00  7.080151557922363e+00 2 1 1
74 2 -1.178781151771545e+00  6.641692161560059e+00  6.837485790252686e+00 2 1 1
75 1 -6.619254350662231e-01  2.716582775115967e+00  4.685926914215088e+00 2 1 1
76 1 -2.706137597560883e-01  2.380874395370483e+00  4.534721374511719e+00 2 1 1
77 1  1.313717961311340e-01  2.032602548599243e+00  4.610863208770752e+00 2 1 1
78 4  4.095014929771423e-01  1.657392740249634e+00  4.876471996307373e+00 2 1 1
79 1  4.762983024120331e-01  1.251109480857849e+00  5.221661090850830e+00 2 1 1
80 3  3.245753347873688e-01  8.214256167411804e-01  5.506336212158203e+00 2 1 1
81 4  3.016394935548306e-02  3.849068582057953e-01  5.613374233245850e+00 2 1 1
82 3 -2.768936753273010e-01 -3.929229453206062e-02  5.493145465850830e+00 2 1 1
83 3 -4.617517590522766e-01 -4.366931915283203e-01  5.182366847991943e+00 2 1 1
84 3 -4.359890520572662e-01 -8.030006289482117e-01  4.790138721466064e+00 2 1 1
85 2 -1.912042647600174e-01 -1.145726561546326e+00  4.456516265869141e+00 2 1 1
86 3  1.977950930595398e-01 -1.481348633766174e+00  4.299280166625977e+00 2 1 1
87 3  6.014117598533630e-01 -1.829039335250854e+00  4.369207382202148e+00 2 1 1
88 4  8.844942450523376e-01 -2.203388929367065e+00  4.630765914916992e+00 2 1 1
89 1  9.576848149299622e-01 -2.608855962753296e+00  4.975621223449707e+00 2 1 1
90 4  8.113680481910706e-01 -3.038082599639893e+00  5.263789176940918e+00 2 1 1
91 2  5.193198919296265e-01 -3.474677324295044e+00  5.376833438873291e+00 2 1 1
92 1  2.106861174106598e-01 -3.899452209472656e+00  5.262836933135986e+00 2 1 1
93 4  2.091101743280888e-02 -4.297712802886963e+00  4.956149101257324e+00 2 1 1
94 2  4.028297960758209e-02 -4.664839267730713e+00  4.564317226409912e+00 2 1 1
95 3  2.506811141967773e+00  1.013568210601807e+01 -5.661214828491211e+00 3 1 1
96 2  2.612085819244385e+00  9.690809249877930e+00 -5.378942489624023e+00 3 1 1
97 4  2.838112592697144e+00  9.403757095336914e+00 -4.984982013702393e+00 3 1 1
98 1  3.055581092834473e+00  9.325487136840820e+00 -4.499943256378174e+00 3 1 1
99 3  3.138418436050415e+00  9.427630424499512e+00 -3.978992700576782e+00 3 1 1
100 2  3.011750221252441e+00  9.613288879394531e+00 -3.490956068038940e+00 3 1 1
101 1  2.680213928222656e+00  9.753818511962891e+00 -3.092184543609619e+00 3 1 1
102 3  2.226353883743286e+00  9.737728118896484e+00 -2.805056333541870e+00 3 1 1
103 2  1.779164552688599e+00  9.513030052185059e+00 -2.609585046768188e+00 3 1 1
104 1  1.465066313743591e+00  9.106995582580566e+00 -2.450940847396851e+00 3 1 1
105 4  1.359992742538452e+00  8.615767478942871e+00 -2.260305166244507e+00 3 1 1
106 1  1.460398912429810e+00  8.167881965637207e+00 -1.981000423431396e+00 3 1 1
107 3  1.684700012207031e+00  7.875397682189941e+00 -1.590077161788940e+00 3 1 1
108 4  1.904238581657410e+00  7.791325569152832e+00 -1.106944322586060e+00 3 1 1
109 3  1.992173194885254e+00  7.889503002166748e+00 -5.860667824745178e-01 3 1 1
110 3  1.871675729751587e+00  8.074541091918945e+00 -9.624771028757095e-02 3 1 1
111 4  1.545033931732178e+00  8.218028068542480e+00  3.055166006088257e-01 3 1 1
112 2  1.092955708503723e+00  8.207353591918945e+00  5.956744551658630e-01 3 1 1
113 2  6.437188982963562e-01  7.988468170166016e+00  7.930840253829956e-01 3 1 1
114 3  3.245815634727478e-01  7.586432933807373e+00  9.518252611160278e-01 3 1 1
115 4  2.133330106735229e-01  7.095885276794434e+00  1.140692472457886e+00 3 1 1
116 2  3.088061213493347e-01  6.645086765289307e+00  1.417018294334412e+00 3 1 1
117 1  5.312805771827698e-01  6.347209930419922e+00  1.804900646209717e+00 3 1 1
118 1  7.528010010719299e-01  6.257311344146729e+00  2.286084413528442e+00 3 1 1
119 2  8.457620739936829e-01  6.351450920104980e+00  2.806832313537598e+00 3 1 1
120 4  7.314183712005615e-01  6.535757064819336e+00  3.298396825790405e+00 3 1 1
121 2  4.097645580768585e-01  6.682114601135254e+00  3.703120470046997e+00 3 1 1
122 3 -1.447499513626099e+00  5.489518642425537e+00  7.038212299346924e+00 3 1 1
123 2 -1.230550765991211e+00  5.639190673828125e+00  7.506412982940674e+00 3 1 1
124 2 -1.094580054283142e+00  5.985957145690918e+00  7.893646240234375e+00 3 1 1
125 2 -1.140847206115723e+00  6.433168888092041e+00  8.187826156616211e+00 3 1 1
126 4 -1.401394605636597e+00  6.846028327941895e+00  8.412230491638184e+00 3 1 1
127 4 -1.826824545860291e+00  7.102757930755615e+00  8.616633415222168e+00 3 1 1
128 2 -2.305120706558228e+00  7.140928268432617e+00  8.858424186706543e+00 3 1 1
129 4 -2.704173088073730e+00  6.981132030487061e+00  9.180774688720703e+00 3 1 1
130 2 -2.921977281570435e+00  6.719166278839111e+00  9.596252441406250e+00 3 1 1
131 3 -2.925387382507324e+00  6.489645957946777e+00  1.008204460144043e+01 3 1 1
132 4 -2.762732982635498e+00  6.414896488189697e+00  1.058863544464111e+01 3 1 1
133 1 -2.545376300811768e+00  6.558354854583740e+00  1.105859661102295e+01 3 1 1
134 2 -2.405524253845215e+00  6.900655746459961e+00  1.144841098785400e+01 3 1 1
135 3 -2.445911407470703e+00  7.346837043762207e+00  1.174501609802246e+01 3 1 1
136 3 -2.700794219970703e+00  7.762470245361328e+00  1.197078514099121e+01 3 1 1
137 3 -3.122936487197876e+00  8.024755477905273e+00  1.217494773864746e+01 3 1 1
138 4 -3.601570844650269e+00  8.069134712219238e+00  1.241499137878418e+01 3 1 1
139 1 -4.004458427429199e+00  7.913834095001221e+00  1.273476219177246e+01 3 1 1
140 3 -4.228138923645020e+00  7.652958869934082e+00  1.314779853820801e+01 3 1 1
141 3 -4.237231254577637e+00  7.420715808868408e+00  1.363221931457520e+01 3 1 1

# Atom-ID, translational, rotational velocity
Velocities

1  0.000000000000000e+00  0.000000000000000e+00  0.000000000000000e+00  0.000000000000000e+00  0.000000000000000e+00  0.000000000000000e+00
2  0.000000000000000e+00  0.000000000000000e+00  0.000000000000000e+00  0.000000000000000e+00  0.000000000000000e+00  0.000000000000000e+00
3  0.000000000000000e+00  0.000000000000000e+00  0.000000000000000e+00  0.000000000000000e+00  0.000000000000000e+00  0.000000000000000e+00
4  0.000000000000000e+00  0.000000000000000e+00  0.000000000000000e+00  0.000000000000000e+00  0.000000000000000e+00  0.000000000000000e+00
5  0.000000000000000e+00  0.000000000000000e+00  0.000000000000000e+00  0.000000000000000e+00  0.000000000000000e+00  0.000000000000000e+00
6  0.000000000000000e+00  0.000000000000000e+00  0.000000000000000e+00  0.000000000000000e+00  0.000000000000000e+00  0.000000000000000e+00
7  0.000000000000000e+00  0.000000000000000e+00  0.000000000000000e+00  0.000000000000000e+00  0.000000000000000e+00  0.000000000000000e+00
8  0.000000000000000e+00  0.000000000000000e+00  0.000000000000000e+00  0.000000000000000e+00  0.000000000000000e+00  0.000000000000000e+00
9  0.000000000000000e+00  0.000000000000000e+00  0.000000000000000e+00  0.000000000000000e+00  0.000000000000000e+00  0.000000000000000e+00
10  0.000000000000000e+00  0.000000000000000e+00  0.000000000000000e+00  0.000000000000000e+00  0.000000000000000e+00  0.000000000000000e+00
11  0.000000000000000e+00  0.000000000000000e+00  0.000000000000000e+00  0.000000000000000e+00  0.000000000000000e+00  0.000000000000000e+00
12  0.000000000000000e+00  0.000000000000000e+00  0.000000000000000e+00  0.000000000000000e+00  0.000000000000000e+00  0.000000000000000e+00
13  0.000000000000000e+00  0.000000000000000e+00  0.000000000000000e+00  0.000000000000000e+00  0.000000000000000e+00  0.000000000000000e+00
14  0.000000000000000e+00  0.000000000000000e+00  0.000000000000000e+00  0.000000000000000e+00  0.000000000000000e+00  0.000000000000000e+00
15  0.000000000000000e+00  0.000000000000000e+00  0.000000000000000e+00  0.000000000000000e+00  0.000000000000000e+00  0.000000000000000e+00
16  0.000000000000000e+00  0.000000000000000e+00  0.000000000000000e+00  0.000000000000000e+00  0.000000000000000e+00  0.000000000000000e+00
17  0.000000000000000e+00  0.000000000000000e+00  0.000000000000000e+00  0.000000000000000e+00  0.000000000000000e+00  0.000000000000000e+00
18  0.000000000000000e+00  0.000000000000000e+00  0.000000000000000e+00  0.000000000000000e+00  0.000000000000000e+00  0.000000000000000e+00
19  0.000000000000000e+00  0.000000000000000e+00  0.000000000000000e+00  0.000000000000000e+00  0.000000000000000e+00  0.000000000000000e+00
20  0.000000000000000e+00  0.000000000000000e+00  0.000000000000000e+00  0.000000000000000e+00  0.000000000000000e+00  0.000000000000000e+00
21  0.000000000000000e+00  0.000000000000000e+00  0.000000000000000e+00  0.000000000000000e+00  0.000000000000000e+00  0.000000000000000e+00
22  0.000000000000000e+00  0.000000000000000e+00  0.000000000000000e+00  0.000000000000000e+00  0.000000000000000e+00  0.000000000000000e+00
23  0.000000000000000e+00  0.000000000000000e+00  0.000000000000000e+00  0.000000000000000e+00  0.000000000000000e+00  0.000000000000000e+00
24  0.000000000000000e+00  0.000000000000000e+00  0.000000000000000e+00  0.000000000000000e+00  0.000000000000000e+00  0.000000000000000e+00
25  0.000000000000000e+00  0.000000000000000e+00  0.000000000000000e+00  0.000000000000000e+00  0.000000000000000e+00  0.000000000000000e+00
26  0.000000000000000e+00  0.000000000000000e+00  0.000000000000000e+00  0.000000000000000e+00  0.000000000000000e+00  0.000000000000000e+00
27  0.000000000000000e+00  0.000000000000000e+00  0.000000000000000e+00  0.000000000000000e+00  0.000000000000000e+00  0.000000000000000e+00
28  0.000000000000000e+00  0.000000000000000e+00  0.000000000000000e+00  0.000000000000000e+00  0.000000000000000e+00  0.000000000000000e+00
29  0.000000000000000e+00  0.000000000000000e+00  0.000000000000000e+00  0.000000000000000e+00  0.000000000000000e+00  0.000000000000000e+00
30  0.000000000000000e+00  0.000000000000000e+00  0.000000000000000e+00  0.000000000000000e+00  0.000000000000000e+00  0.000000000000000e+00
31  0.000000000000000e+00  0.000000000000000e+00  0.000000000000000e+00  0.000000000000000e+00  0.000000000000000e+00  0.000000000000000e+00
32  0.000000000000000e+00  0.000000000000000e+00  0.000000000000000e+00  0.000000000000000e+00  0.000000000000000e+00  0.000000000000000e+00
33  0.000000000000000e+00  0.000000000000000e+00  0.000000000000000e+00  0.000000000000000e+00  0.000000000000000e+00  0.000000000000000e+00
34  0.000000000000000e+00  0.000000000000000e+00  0.000000000000000e+00  0.000000000000000e+00  0.000000000000000e+00  0.000000000000000e+00
35  0.000000000000000e+00  0.000000000000000e+00  0.000000000000000e+00  0.000000000000000e+00  0.000000000000000e+00  0.000000000000000e+00
36  0.000000000000000e+00  0.000000000000000e+00  0.000000000000000e+00  0.000000000000000e+00  0.000000000000000e+00  0.000000000000000e+00
37  0.000000000000000e+00  0.000000000000000e+00  0.000000000000000e+00  0.000000000000000e+00  0.000000000000000e+00  0.000000000000000e+00
38  0.000000000000000e+00  0.000000000000000e+00  0.000000000000000e+00  0.000000000000000e+00  0.000000000000000e+00  0.000000000000000e+00
39  0.000000000000000e+00  0.000000000000000e+00  0.000000000000000e+00  0.000000000000000e+00  0.000000000000000e+00  0.000000000000000e+00
40  0.000000000000000e+00  0.000000000000000e+00  0.000000000000000e+00  0.000000000000000e+00  0.000000000000000e+00  0.000000000000000e+00
41  0.000000000000000e+00  0.000000000000000e+00  0.000000000000000e+00  0.000000000000000e+00  0.000000000000000e+00  0.000000000000000e+00
42  0.000000000000000e+00  0.000000000000000e+00  0.000000000000000e+00  0.000000000000000e+00  0.000000000000000e+00  0.000000000000000e+00
43  0.000000000000000e+00  0.000000000000000e+00  0.000000000000000e+00  0.000000000000000e+00  0.000000000000000e+00  0.000000000000000e+00
44  0.000000000000000e+00  0.000000000000000e+00  0.000000000000000e+00  0.000000000000000e+00  0.000000000000000e+00  0.000000000000000e+00
45  0.000000000000000e+00  0.000000000000000e+00  0.000000000000000e+00  0.000000000000000e+00  0.000000000000000e+00  0.000000000000000e+00
46  0.000000000000000e+00  0.000000000000000e+00  0.000000000000000e+00  0.000000000000000e+00  0.000000000000000e+00  0.000000000000000e+00
47  0.000000000000000e+00  0.000000000000000e+00  0.000000000000000e+00  0.000000000000000e+00  0.000000000000000e+00  0.000000000000000e+00
48  0.000000000000000e+00  0.000000000000000e+00  0.000000000000000e+00  0.000000000000000e+00  0.000000000000000e+00  0.000000000000000e+00
49  0.000000000000000e+00  0.000000000000000e+00  0.000000000000000e+00  0.000000000000000e+00  0.000000000000000e+00  0.000000000000000e+00
50  0.000000000000000e+00  0.000000000000000e+00  0.000000000000000e+00  0.000000000000000e+00  0.000000000000000e+00  0.000000000000000e+00
51  0.000000000000000e+00  0.000000000000000e+00  0.000000000000000e+00  0.000000000000000e+00  0.000000000000000e+00  0.000000000000000e+00
52  0.000000000000000e+00  0.000000000000000e+00  0.000000000000000e+00  0.000000000000000e+00  0.000000000000000e+00  0.000000000000000e+00
53  0.000000000000000e+00  0.000000000000000e+00  0.000000000000000e+00  0.000000000000000e+00  0.000000000000000e+00  0.000000000000000e+00
54  0.000000000000000e+00  0.000000000000000e+00  0.000000000000000e+00  0.000000000000000e+00  0.000000000000000e+00  0.000000000000000e+00
55  0.000000000000000e+00  0.000000000000000e+00  0.000000000000000e+00  0.000000000000000e+00  0.000000000000000e+00  0.000000000000000e+00
56  0.000000000000000e+00  0.000000000000000e+00  0.000000000000000e+00  0.000000000000000e+00  0.000000000000000e+00  0.000000000000000e+00
57  0.000000000000000e+00  0.000000000000000e+00  0.000000000000000e+00  0.000000000000000e+00  0.000000000000000e+00  0.000000000000000e+00
58  0.000000000000000e+00  0.000000000000000e+00  0.000000000000000e+00  0.000000000000000e+00  0.000000000000000e+00  0.000000000000000e+00
59  0.000000000000000e+00  0.000000000000000e+00  0.000000000000000e+00  0.000000000000000e+00  0.000000000000000e+00  0.000000000000000e+00
60  0.000000000000000e+00  0.000000000000000e+00  0.000000000000000e+00  0.000000000000000e+00  0.000000000000000e+00  0.000000000000000e+00
61  0.000000000000000e+00  0.000000000000000e+00  0.000000000000000e+00  0.000000000000000e+00  0.000000000000000e+00  0.000000000000000e+00
62  0.000000000000000e+00  0.000000000000000e+00  0.000000000000000e+00  0.000000000000000e+00  0.000000000000000e+00  0.000000000000000e+00
63  0.000000000000000e+00  0.000000000000000e+00  0.000000000000000e+00  0.000000000000000e+00  0.000000000000000e+00  0.000000000000000e+00
64  0.000000000000000e+00  0.000000000000000e+00  0.000000000000000e+00  0.000000000000000e+00  0.000000000000000e+00  0.000000000000000e+00
65  0.000000000000000e+00  0.000000000000000e+00  0.000000000000000e+00  0.000000000000000e+00  0.000000000000000e+00  0.000000000000000e+00
66  0.000000000000000e+00  0.000000000000000e+00  0.000000000000000e+00  0.000000000000000e+00  0.000000000000000e+00  0.000000000000000e+00
67  0.000000000000000e+00  0.000000000000000e+00  0.000000000000000e+00  0.000000000000000e+00  0.000000000000000e+00  0.000000000000000e+00
68  0.000000000000000e+00  0.000000000000000e+00  0.000000000000000e+00  0.000000000000000e+00  0.000000000000000e+00  0.000000000000000e+00
69  0.000000000000000e+00  0.000000000000000e+00  0.000000000000000e+00  0.000000000000000e+00  0.000000000000000e+00  0.000000000000000e+00
70  0.000000000000000e+00  0.000000000000000e+00  0.000000000000000e+00  0.000000000000000e+00  0.000000000000000e+00  0.000000000000000e+00
71  0.000000000000000e+00  0.000000000000000e+00  0.000000000000000e+00  0.000000000000000e+00  0.000000000000000e+00  0.000000000000000e+00
72  0.000000000000000e+00  0.000000000000000e+00  0.000000000000000e+00  0.000000000000000e+00  0.000000000000000e+00  0.000000000000000e+00
73  0.000000000000000e+00  0.000000000000000e+00  0.000000000000000e+00  0.000000000000000e+00  0.000000000000000e+00  0.000000000000000e+00
74  0.000000000000000e+00  0.000000000000000e+00  0.000000000000000e+00  0.000000000000000e+00  0.000000000000000e+00  0.000000000000000e+00
75  0.000000000000000e+00  0.000000000000000e+00  0.000000000000000e+00  0.000000000000000e+00  0.000000000000000e+00  0.000000000000000e+00
76  0.000000000000000e+00  0.000000000000000e+00  0.000000000000000e+00  0.000000000000000e+00  0.000000000000000e+00  0.000000000000000e+00
77  0.000000000000000e+00  0.000000000000000e+00  0.000000000000000e+00  0.000000000000000e+00  0.000000000000000e+00  0.000000000000000e+00
78  0.000000000000000e+00  0.000000000000000e+00  0.000000000000000e+00  0.000000000000000e+00  0.000000000000000e+00  0.000000000000000e+00
79  0.000000000000000e+00  0.000000000000000e+00  0.000000000000000e+00  0.000000000000000e+00  0.000000000000000e+00  0.000000000000000e+00
80  0.000000000000000e+00  0.000000000000000e+00  0.000000000000000e+00  0.000000000000000e+00  0.000000000000000e+00  0.000000000000000e+00
81  0.000000000000000e+00  0.000000000000000e+00  0.000000000000000e+00  0.000000000000000e+00  0.000000000000000e+00  0.000000000000000e+00
82  0.000000000000000e+00  0.000000000000000e+00  0.000000000000000e+00  0.000000000000000e+00  0.000000000000000e+00  0.000000000000000e+00
83  0.000000000000000e+00  0.000000000000000e+00  0.000000000000000e+00  0.000000000000000e+00  0.000000000000000e+00  0.000000000000000e+00
84  0.000000000000000e+00  0.000000000000000e+00  0.000000000000000e+00  0.000000000000000e+00  0.000000000000000e+00  0.000000000000000e+00
85  0.000000000000000e+00  0.000000000000000e+00  0.000000000000000e+00  0.000000000000000e+00  0.000000000000000e+00  0.000000000000000e+00
86  0.000000000000000e+00  0.000000000000000e+00  0.000000000000000e+00  0.000000000000000e+00  0.000000000000000e+00  0.000000000000000e+00
87  0.000000000000000e+00  0.000000000000000e+00  0.000000000000000e+00  0.000000000000000e+00  0.000000000000000e+00  0.000000000000000e+00
88  0.000000000000000e+00  0.000000000000000e+00  0.000000000000000e+00  0.000000000000000e+00  0.000000000000000e+00  0.000000000000000e+00
89  0.000000000000000e+00  0.000000000000000e+00  0.000000000000000e+00  0.000000000000000e+00  0.000000000000000e+00  0.000000000000000e+00
90  0.000000000000000e+00  0.000000000000000e+00  0.000000000000000e+00  0.000000000000000e+00  0.000000000000000e+00  0.000000000000000e+00
91  0.000000000000000e+00  0.000000000000000e+00  0.000000000000000e+00  0.000000000000000e+00  0.000000000000000e+00  0.000000000000000e+00
92  0.000000000000000e+00  0.000000000000000e+00  0.000000000000000e+00  0.000000000000000e+00  0.000000000000000e+00  0.000000000000000e+00
93  0.000000000000000e+00  0.000000000000000e+00  0.000000000000000e+00  0.000000000000000e+00  0.000000000000000e+00  0.000000000000000e+00
94  0.000000000000000e+00  0.000000000000000e+00  0.000000000000000e+00  0.000000000000000e+00  0.000000000000000e+00  0.000000000000000e+00
95  0.000000000000000e+00  0.000000000000000e+00  0.000000000000000e+00  0.000000000000000e+00  0.000000000000000e+00  0.000000000000000e+00
96  0.000000000000000e+00  0.000000000000000e+00  0.000000000000000e+00  0.000000000000000e+00  0.000000000000000e+00  0.000000000000000e+00
97  0.000000000000000e+00  0.000000000000000e+00  0.000000000000000e+00  0.000000000000000e+00  0.000000000000000e+00  0.000000000000000e+00
98  0.000000000000000e+00  0.000000000000000e+00  0.000000000000000e+00  0.000000000000000e+00  0.000000000000000e+00  0.000000000000000e+00
99  0.000000000000000e+00  0.000000000000000e+00  0.000000000000000e+00  0.000000000000000e+00  0.000000000000000e+00  0.000000000000000e+00
100  0.000000000000000e+00  0.000000000000000e+00  0.000000000000000e+00  0.000000000000000e+00  0.000000000000000e+00  0.000000000000000e+00
101  0.000000000000000e+00  0.000000000000000e+00  0.000000000000000e+00  0.000000000000000e+00  0.000000000000000e+00  0.000000000000000e+00
102  0.000000000000000e+00  0.000000000000000e+00  0.000000000000000e+00  0.000000000000000e+00  0.000000000000000e+00  0.000000000000000e+00
103  0.000000000000000e+00  0.000000000000000e+00  0.000000000000000e+00  0.000000000000000e+00  0.000000000000000e+00  0.000000000000000e+00
104  0.000000000000000e+00  0.000000000000000e+00  0.000000000000000e+00  0.000000000000000e+00  0.000000000000000e+00  0.000000000000000e+00
105  0.000000000000000e+00  0.000000000000000e+00  0.000000000000000e+00  0.000000000000000e+00  0.000000000000000e+00  0.000000000000000e+00
106  0.000000000000000e+00  0.000000000000000e+00  0.000000000000000e+00  0.000000000000000e+00  0.000000000000000e+00  0.000000000000000e+00
107  0.000000000000000e+00  0.000000000000000e+00  0.000000000000000e+00  0.000000000000000e+00  0.000000000000000e+00  0.000000000000000e+00
108  0.000000000000000e+00  0.000000000000000e+00  0.000000000000000e+00  0.000000000000000e+00  0.000000000000000e+00  0.000000000000000e+00
109  0.000000000000000e+00  0.000000000000000e+00  0.000000000000000e+00  0.000000000000000e+00  0.000000000000000e+00  0.000000000000000e+00
110  0.000000000000000e+00  0.000000000000000e+00  0.000000000000000e+00  0.000000000000000e+00  0.000000000000000e+00  0.000000000000000e+00
111  0.000000000000000e+00  0.000000000000000e+00  0.000000000000000e+00  0.000000000000000e+00  0.000000000000000e+00  0.000000000000000e+00
112  0.000000000000000e+00  0.000000000000000e+00  0.000000000000000e+00  0.000000000000000e+00  0.000000000000000e+00  0.000000000000000e+00
113  0.000000000000000e+00  0.000000000000000e+00  0.000000000000000e+00  0.000000000000000e+00  0.000000000000000e+00  0.000000000000000e+00
114  0.000000000000000e+00  0.000000000000000e+00  0.000000000000000e+00  0.000000000000000e+00  0.000000000000000e+00  0.000000000000000e+00
115  0.000000000000000e+00  0.000000000000000e+00  0.000000000000000e+00  0.000000000000000e+00  0.000000000000000e+00  0.000000000000000e+00
116  0.000000000000000e+00  0.000000000000000e+00  0.000000000000000e+00  0.000000000000000e+00  0.000000000000000e+00  0.000000000000000e+00
117  0.000000000000000e+00  0.000000000000000e+00  0.000000000000000e+00  0.000000000000000e+00  0.000000000000000e+00  0.000000000000000e+00
118  0.000000000000000e+00  0.000000000000000e+00  0.000000000000000e+00  0.000000000000000e+00  0.000000000000000e+00  0.000000000000000e+00
119  0.000000000000000e+00  0.000000000000000e+00  0.000000000000000e+00  0.000000000000000e+00  0.000000000000000e+00  0.000000000000000e+00
120  0.000000000000000e+00  0.000000000000000e+00  0.000000000000000e+00  0.000000000000000e+00  0.000000000000000e+00  0.000000000000000e+00
121  0.000000000000000e+00  0.000000000000000e+00  0.000000000000000e+00  0.000000000000000e+00  0.000000000000000e+00  0.000000000000000e+00
122  0.000000000000000e+00  0.000000000000000e+00  0.000000000000000e+00  0.000000000000000e+00  0.000000000000000e+00  0.000000000000000e+00
123  0.000000000000000e+00  0.000000000000000e+00  0.000000000000000e+00  0.000000000000000e+00  0.000000000000000e+00  0.000000000000000e+00
124  0.000000000000000e+00  0.000000000000000e+00  0.000000000000000e+00  0.000000000000000e+00  0.000000000000000e+00  0.000000000000000e+00
125  0.000000000000000e+00  0.000000000000000e+00  0.000000000000000e+00  0.000000000000000e+00  0.000000000000000e+00  0.000000000000000e+00
126  0.000000000000000e+00  0.000000000000000e+00  0.000000000000000e+00  0.000000000000000e+00  0.000000000000000e+00  0.000000000000000e+00
127  0.000000000000000e+00  0.000000000000000e+00  0.000000000000000e+00  0.000000000000000e+00  0.000000000000000e+00  0.000000000000000e+00
128  0.000000000000000e+00  0.000000000000000e+00  0.000000000000000e+00  0.000000000000000e+00  0.000000000000000e+00  0.000000000000000e+00
129  0.000000000000000e+00  0.000000000000000e+00  0.000000000000000e+00  0.000000000000000e+00  0.000000000000000e+00  0.000000000000000e+00