# LAMMPS data file
231 atoms
231 ellipsoids
226 bonds

4 atom types
1 bond types

# System size
0.000000 45.000000 xlo xhi
0.000000 45.000000 ylo yhi
0.000000 45.000000 zlo zhi

Masses

1 3.1575
2 3.1575
3 3.1575
4 3.1575

# Atom-ID, type, position, molecule-ID, ellipsoid flag, density
Atoms

1 3 -4.332766056060791e+00  3.073692321777344e+00  1.098627090454102e+01 1 1 1
2 2 -4.534867763519287e+00  2.890844821929932e+00  1.052323341369629e+01 1 1 1
3 4 -4.698477268218994e+00  2.927599906921387e+00  1.001278591156006e+01 1 1 1
4 1 -4.708176136016846e+00  3.131971359252930e+00  9.515968322753906e+00 1 1 1
5 3 -4.507094860076904e+00  3.388294935226440e+00  9.088695526123047e+00 1 1 1
6 2 -4.118423461914062e+00  3.561137437820435e+00  8.760437011718750e+00 1 1 1
7 1 -3.636636018753052e+00  3.546825170516968e+00  8.523052215576172e+00 1 1 1
8 2 -3.191539764404297e+00  3.312744140625000e+00  8.333875656127930e+00 1 1 1
9 2 -2.899067640304565e+00  2.909829854965210e+00  8.131926536560059e+00 1 1 1
10 4 -2.817131042480469e+00  2.453100442886353e+00  7.861052513122559e+00 1 1 1
11 1 -2.923583745956421e+00  2.078058719635010e+00  7.491320610046387e+00 1 1 1
12 2 -3.124897956848145e+00  1.889158129692078e+00  7.030360221862793e+00 1 1 1
13 2 -3.291309118270874e+00  1.920133233070374e+00  6.520432949066162e+00 1 1 1
14 2 -3.306388616561890e+00  2.121192455291748e+00  6.022407531738281e+00 1 1 1
15 3 -3.111299753189087e+00  2.377917051315308e+00  5.592650890350342e+00 1 1 1
16 4 -2.726837635040283e+00  2.554762601852417e+00  5.261564254760742e+00 1 1 1
17 1 -2.245953559875488e+00  2.546471834182739e+00  5.022092819213867e+00 1 1 1
18 2 -1.798063158988953e+00  2.318214654922485e+00  4.832346916198730e+00 1 1 1
19 3 -1.500215172767639e+00  1.918656349182129e+00  4.631590366363525e+00 1 1 1
20 1 -1.412286162376404e+00  1.461564898490906e+00  4.363204956054688e+00 1 1 1
21 3 -1.514477372169495e+00  1.082580447196960e+00  3.996326208114624e+00 1 1 1
22 1 -1.714820146560669e+00  8.876476883888245e-01  3.537480115890503e+00 1 1 1
23 1 -1.883964896202087e+00  9.128008484840393e-01  3.028111696243286e+00 1 1 1
24 3 -1.904477357864380e+00  1.110454678535461e+00  2.528928995132446e+00 1 1 1
25 3 -1.715253829956055e+00  1.367494106292725e+00  2.096681118011475e+00 1 1 1
26 3 -1.335107445716858e+00  1.548220276832581e+00  1.762749075889587e+00 1 1 1
27 2 -8.551961183547974e-01  1.545962452888489e+00  1.521157383918762e+00 1 1 1
28 1 -1.098414286971092e-01 -3.897287368774414e+00 -2.574273943901062e-01 1 1 1
29 1  2.350158691406250e-01 -4.309267520904541e+00 -2.525515556335449e-01 1 1 1
30 1  6.207061409950256e-01 -4.621625900268555e+00 -4.675851017236710e-02 1 1 1
31 4  9.081520438194275e-01 -4.848800182342529e+00  3.462541699409485e-01 1 1 1
32 1  9.955508708953857e-01 -5.037575244903564e+00  8.416389226913452e-01 1 1 1
33 3  8.572441935539246e-01 -5.249334812164307e+00  1.315666556358337e+00 1 1 1
34 4  5.530958175659180e-01 -5.536711692810059e+00  1.652723312377930e+00 1 1 1
35 3  2.061803638935089e-01 -5.923628807067871e+00  1.789220213890076e+00 1 1 1
36 3 -4.427858442068100e-02 -6.396187782287598e+00  1.737780332565308e+00 1 1 1
37 3 -9.560853242874146e-02 -6.907970428466797e+00  1.582409977912903e+00 1 1 1
38 2  7.900182902812958e-02 -7.397600650787354e+00  1.446621656417847e+00 1 1 1
39 3  4.207475781440735e-01 -7.812180995941162e+00  1.446468353271484e+00 1 1 1
40 3  8.072539567947388e-01 -8.127298355102539e+00  1.646481394767761e+00 1 1 1
41 4  1.099089384078979e+00 -8.356328010559082e+00  2.035148382186890e+00 1 1 1
42 1  1.192891001701355e+00 -8.545355796813965e+00  2.529275417327881e+00 1 1 1
43 4  1.060340166091919e+00 -8.755659103393555e+00  3.005616903305054e+00 1 1 1
44 2  7.593603134155273e-01 -9.040449142456055e+00  3.347672462463379e+00 1 1 1
45 1  4.117507636547089e-01 -9.424614906311035e+00  3.489953041076660e+00 1 1 1
46 4  1.569097340106964e-01 -9.895286560058594e+00  3.442888736724854e+00 1 1 1
47 2  9.924601018428802e-02 -1.040679740905762e+01  3.288830041885376e+00 1 1 1
48 3  3.607925176620483e+00  1.397687816619873e+01 -7.084952592849731e-01 2 1 1
49 2  3.421293258666992e+00  1.365048599243164e+01 -1.092315316200256e+00 2 1 1
50 4  3.446762084960938e+00  1.324638938903809e+01 -1.445509195327759e+00 2 1 1
51 1  3.624786853790283e+00  1.277888107299805e+01 -1.641623973846436e+00 2 1 1
52 3  3.837826251983643e+00  1.228642082214355e+01 -1.613879919052124e+00 2 1 1
53 2  3.955086469650269e+00  1.181686115264893e+01 -1.380553603172302e+00 2 1 1
54 1  3.882135868072510e+00  1.140937328338623e+01 -1.038040041923523e+00 2 1 1
55 3  3.596800327301025e+00  1.107957363128662e+01 -7.241818904876709e-01 2 1 1
56 2  3.157615423202515e+00  1.081355762481689e+01 -5.659595727920532e-01 2 1 1
57 1  2.681548833847046e+00  1.057317733764648e+01 -6.312236785888672e-01 2 1 1
58 4  2.299592733383179e+00  1.031053066253662e+01 -9.029079079627991e-01 2 1 1
59 1  2.106973886489868e+00  9.986207962036133e+00 -1.285538315773010e+00 2 1 1
60 3  2.126998662948608e+00  9.584213256835938e+00 -1.641465067863464e+00 2 1 1
61 4  2.302160978317261e+00  9.118068695068359e+00 -1.843220949172974e+00 2 1 1
62 3  2.516070604324341e+00  8.625640869140625e+00 -1.821871638298035e+00 2 1 1
63 3  2.637552499771118e+00  8.154818534851074e+00 -1.593279838562012e+00 2 1 1
64 4  2.570578336715698e+00  7.745261669158936e+00 -1.252012848854065e+00 2 1 1
65 2  2.290717363357544e+00  7.413357734680176e+00 -9.354631304740906e-01 2 1 1
66 2  1.854416608810425e+00  7.145990371704102e+00 -7.716336846351624e-01 2 1 1
67 3  1.377549290657043e+00  6.905529975891113e+00 -8.304891586303711e-01 2 1 1
68 4  9.914157986640930e-01  6.644125461578369e+00 -1.097411155700684e+00 2 1 1
69 2  7.928178310394287e-01  6.321877956390381e+00 -1.478727340698242e+00 2 1 1
70 1  8.073495626449585e-01  5.921996116638184e+00 -1.837301015853882e+00 2 1 1
71 1  9.795936942100525e-01  5.457204818725586e+00 -2.044636011123657e+00 2 1 1
72 2  1.194243907928467e+00  4.964878559112549e+00 -2.029699563980103e+00 2 1 1
73 4  1.319866061210632e+00  4.492843151092529e+00 -1.805901169776917e+00 2 1 1
74 2 -8.100198507308960e-01  5.848906636238098e-01  2.248799085617065e+00 2 1 1
75 2 -7.099262475967407e-01  9.658172130584717e-01  2.614260196685791e+00 2 1 1
76 2 -8.008168339729309e-01  1.423041224479675e+00  2.881404161453247e+00 2 1 1
77 4 -1.101380586624146e+00  1.820895552635193e+00  3.081593990325928e+00 2 1 1
78 4 -1.550578474998474e+00  2.046242475509644e+00  3.271620512008667e+00 2 1 1
79 2 -2.030974149703979e+00  2.051507711410522e+00  3.512151002883911e+00 2 1 1
80 4 -2.413279294967651e+00  1.872718930244446e+00  3.844653606414795e+00 2 1 1
81 2 -2.605461359024048e+00  1.615819811820984e+00  4.275663852691650e+00 2 1 1
82 3 -2.587664842605591e+00  1.416443824768066e+00  4.774272918701172e+00 2 1 1
83 4 -2.419889211654663e+00  1.388392925262451e+00  5.283931732177734e+00 2 1 1
84 1 -2.219059705734253e+00  1.580298900604248e+00  5.743843078613281e+00 2 1 1
85 2 -2.114646196365356e+00  1.957327842712402e+00  6.112137794494629e+00 2 1 1
86 3 -2.199612379074097e+00  2.414250850677490e+00  6.381749153137207e+00 2 1 1
87 3 -2.494804143905640e+00  2.815498828887939e+00  6.583111763000488e+00 2 1 1
88 3 -2.941266298294067e+00  3.046672582626343e+00  6.772558689117432e+00 2 1 1
89 4 -3.422633171081543e+00  3.057965040206909e+00  7.010980129241943e+00 2 1 1
90 1 -3.809199333190918e+00  2.883110523223877e+00  7.340654850006104e+00 2 1 1
91 3 -4.007313251495361e+00  2.626575946807861e+00  7.769183635711670e+00 2 1 1
92 3 -3.994893550872803e+00  2.423852205276489e+00  8.266614913940430e+00 2 1 1
93 3  6.994519829750061e-01 -1.306641006469727e+01  3.995306491851807e+00 3 1 1
94 2  3.625455498695374e-01 -1.264795684814453e+01  4.002893447875977e+00 3 1 1
95 4  1.967671066522598e-01 -1.215619850158691e+01  4.142040729522705e+00 3 1 1
96 1  2.575596272945404e-01 -1.164486598968506e+01  4.295414447784424e+00 3 1 1
97 3  5.145588517189026e-01 -1.117512989044189e+01  4.340260505676270e+00 3 1 1
98 2  8.624831438064575e-01 -1.079235172271729e+01  4.195089340209961e+00 3 1 1
99 1  1.161849379539490e+00 -1.050885486602783e+01  3.850552082061768e+00 3 1 1
100 3  1.291436791419983e+00 -1.029925632476807e+01  3.373093605041504e+00 3 1 1
101 1  1.194500803947449e+00 -1.011007976531982e+01  2.879628181457520e+00 3 1 1
102 4  9.005059599876404e-01 -9.880110740661621e+00  2.493160009384155e+00 3 1 1
103 3  5.136834979057312e-01 -9.563616752624512e+00  2.296036005020142e+00 3 1 1
104 1  1.734910458326340e-01 -9.147733688354492e+00  2.298683881759644e+00 3 1 1
105 4  1.788315479643643e-03 -8.657379150390625e+00  2.435618638992310e+00 3 1 1
106 1  5.631553381681442e-02 -8.145744323730469e+00  2.590346336364746e+00 3 1 1
107 2  3.089377284049988e-01 -7.674114227294922e+00  2.639604806900024e+00 3 1 1
108 2  6.562309265136719e-01 -7.288571357727051e+00  2.500213384628296e+00 3 1 1
109 3  9.588239789009094e-01 -7.002498149871826e+00  2.160651445388794e+00 3 1 1
110 2  1.094222068786621e+00 -6.791465282440186e+00  1.685462594032288e+00 3 1 1
111 2  1.003679752349854e+00 -6.602575302124023e+00  1.190687060356140e+00 3 1 1
112 2  7.140076160430908e-01 -6.374477386474609e+00  7.998442649841309e-01 3 1 1
113 1  3.278782367706299e-01 -6.060739517211914e+00  5.969381928443909e-01 3 1 1
114 2 -1.542268041521311e-02 -5.647456169128418e+00  5.945814847946167e-01 3 1 1
115 4 -1.930027455091476e-01 -5.158545017242432e+00  7.292086482048035e-01 3 1 1
116 1 -1.447559148073196e-01 -4.646662235260010e+00  8.851863741874695e-01 3 1 1
117 4  1.034777462482452e-01 -4.173172950744629e+00  9.387930035591125e-01 3 1 1
118 4  4.499551653862000e-01 -3.784864187240601e+00  8.051832914352417e-01 3 1 1
119 4  7.555992603302002e-01 -3.496177196502686e+00  4.706488847732544e-01 3 1 1
120 3  1.114741921424866e+00 -3.183577537536621e+00 -5.045746326446533e+00 3 1 1
121 3  1.132285594940186e+00 -3.173042535781860e+00 -5.582652568817139e+00 3 1 1
122 4  1.359587550163269e+00 -3.093532085418701e+00 -6.062950134277344e+00 3 1 1
123 1  1.767125725746155e+00 -3.060008049011230e+00 -6.411485671997070e+00 3 1 1
124 2  2.256884574890137e+00 -3.169968843460083e+00 -6.603142738342285e+00 3 1 1
125 3  2.699623823165894e+00 -3.466401338577271e+00 -6.672394275665283e+00 3 1 1
126 1  2.983967781066895e+00 -3.921437025070190e+00 -6.700251102447510e+00 3 1 1
127 2  3.058705568313599e+00 -4.446962356567383e+00 -6.783417701721191e+00 3 1 1
128 2  2.952276706695557e+00 -4.928088665008545e+00 -6.997611999511719e+00 3 1 1
129 4  2.761933565139771e+00 -5.266777515411377e+00 -7.368747711181641e+00 3 1 1
130 3  2.616814851760864e+00 -5.419117927551270e+00 -7.863134860992432e+00 3 1 1
131 1  2.628885746002197e+00 -5.411995887756348e+00 -8.400244712829590e+00 3 1 1
132 3  2.850376367568970e+00 -5.332876682281494e+00 -8.883324623107910e+00 3 1 1
133 4  3.253969430923462e+00 -5.296582221984863e+00 -9.236145019531250e+00 3 1 1
134 4  3.743150949478149e+00 -5.401641845703125e+00 -9.431968688964844e+00 3 1 1
135 3  4.188904285430908e+00 -5.692923069000244e+00 -9.503697395324707e+00 3 1 1
136 1  4.478704452514648e+00 -6.144521236419678e+00 -9.531382560729980e+00 3 1 1
137 2  4.559272766113281e+00 -6.669615745544434e+00 -9.611811637878418e+00 3 1 1
138 4  4.456822872161865e+00 -7.153480529785156e+00 -9.821728706359863e+00 3 1 1
139 3  4.267109394073486e+00 -7.497048377990723e+00 -1.018868160247803e+01 3 1 1
140 3  4.874104499816895e+00 -8.770325660705566e+00 -1.262656974792480e+01 4 1 1
141 2  4.870177268981934e+00 -8.772203445434570e+00 -1.208929347991943e+01 4 1 1
142 4  5.019707679748535e+00 -8.612118721008301e+00 -1.159867382049561e+01 4 1 1
143 1  5.209070682525635e+00 -8.266132354736328e+00 -1.123382854461670e+01 4 1 1
144 3  5.309494972229004e+00 -7.780926704406738e+00 -1.102604293823242e+01 4 1 1
145 2  5.226008892059326e+00 -7.256080627441406e+00 -1.094696617126465e+01 4 1 1
146 1  4.933499336242676e+00 -6.806238651275635e+00 -1.091933155059814e+01 4 1 1
147 2  4.486269950866699e+00 -6.517527580261230e+00 -1.084634208679199e+01 4 1 1
148 1  3.997411012649536e+00 -6.414896488189697e+00 -1.064842987060547e+01 4 1 1
149 3  3.595828056335449e+00 -6.452563762664795e+00 -1.029347705841064e+01 4 1 1
150 4  3.377249717712402e+00 -6.531456947326660e+00 -9.809025764465332e+00 4 1 1
151 2  3.367905855178833e+00 -6.536852359771729e+00 -9.271847724914551e+00 4 1 1
152 1  3.514517068862915e+00 -6.381935596466064e+00 -8.778704643249512e+00 4 1 1
153 1  3.704558372497559e+00 -6.040797233581543e+00 -8.409652709960938e+00 4 1 1
154 2  3.809005737304688e+00 -5.558291912078857e+00 -8.197597503662109e+00 4 1 1
155 4  3.731355190277100e+00 -5.032970428466797e+00 -8.115809440612793e+00 4 1 1
156 2  3.444278478622437e+00 -4.579646587371826e+00 -8.088047981262207e+00 4 1 1
157 1  3.000021219253540e+00 -4.285788536071777e+00 -8.017563819885254e+00 4 1 1
158 3  2.510536193847656e+00 -4.178276538848877e+00 -7.823829650878906e+00 4 1 1
159 3  2.104964256286621e+00 -4.213201999664307e+00 -7.473151683807373e+00 4 1 1
160 4  1.880563139915466e+00 -4.292525768280029e+00 -6.991451740264893e+00 4 1 1
161 2  1.865763187408447e+00 -4.301366329193115e+00 -6.454438209533691e+00 4 1 1
162 3  2.009362459182739e+00 -4.151593685150146e+00 -5.958817958831787e+00 4 1 1
163 4  2.199976921081543e+00 -3.815348148345947e+00 -5.585597515106201e+00 4 1 1
164 1  2.308373451232910e+00 -3.335630655288696e+00 -5.369267940521240e+00 4 1 1
165 2  2.236536264419556e+00 -2.809916973114014e+00 -5.284702301025391e+00 4 1 1
166 2  1.954936981201172e+00 -2.353185176849365e+00 -5.256734848022461e+00 4 1 1
167 3 -9.932574033737183e-01  2.151155948638916e+00 -6.032384395599365e+00 4 1 1
168 4 -1.262950301170349e+00  2.580780267715454e+00 -6.209506511688232e+00 4 1 1
169 1 -1.317924618721008e+00  3.061064720153809e+00 -6.444005489349365e+00 4 1 1
170 2 -1.184276580810547e+00  3.460427045822144e+00 -6.777675628662109e+00 4 1 1
171 3 -9.597662091255188e-01  3.678028106689453e+00 -7.214629173278809e+00 4 1 1
172 2 -7.766619324684143e-01  3.682087182998657e+00 -7.719743728637695e+00 4 1 1
173 4 -7.515104413032532e-01  3.521951436996460e+00 -8.232007026672363e+00 4 1 1
174 2 -9.408500194549561e-01  3.309339761734009e+00 -8.687668800354004e+00 4 1 1
175 2 -1.319726109504700e+00  3.175922870635986e+00 -9.044521331787109e+00 4 1 1
176 2 -1.791173338890076e+00  3.223270177841187e+00 -9.297850608825684e+00 4 1 1
177 1 -2.223067522048950e+00  3.484282970428467e+00 -9.482307434082031e+00 4 1 1
178 3 -2.498303651809692e+00  3.910686254501343e+00 -9.658697128295898e+00 4 1 1
179 3 -2.559292554855347e+00  4.391365051269531e+00 -9.890881538391113e+00 4 1 1
180 4 -2.429845809936523e+00  4.794594764709473e+00 -1.022153854370117e+01 4 1 1
181 4 -2.206120491027832e+00  5.018067836761475e+00 -1.065592670440674e+01 4 1 1
182 1 -2.020095109939575e+00  5.027767181396484e+00 -1.115989875793457e+01 4 1 1
183 4 -1.989426016807556e+00  4.870899677276611e+00 -1.167286777496338e+01 4 1 1
184 3 -2.172742128372192e+00  4.657946586608887e+00 -1.213083171844482e+01 4 1 1
185 3 -2.547379493713379e+00  4.520700454711914e+00 -1.249068355560303e+01 4 1 1
186 2 -3.017987728118896e+00  4.562191009521484e+00 -1.274659252166748e+01 4 1 1
187 3 -4.351015090942383e+00  5.905620098114014e+00 -1.483255672454834e+01 5 1 1
188 2 -4.067554950714111e+00  5.484221458435059e+00 -1.465717983245850e+01 5 1 1
189 4 -3.631385326385498e+00  5.231714248657227e+00 -1.447094726562500e+01 5 1 1
190 1 -3.161234617233276e+00  5.193141937255859e+00 -1.421373844146729e+01 5 1 1
191 3 -2.788744211196899e+00  5.332269191741943e+00 -1.385237503051758e+01 5 1 1
192 2 -2.608444929122925e+00  5.545356750488281e+00 -1.339327526092529e+01 5 1 1
193 1 -2.641859769821167e+00  5.700558662414551e+00 -1.287997531890869e+01 5 1 1
194 3 -2.829309225082397e+00  5.688024044036865e+00 -1.237659168243408e+01 5 1 1
195 2 -3.052600383758545e+00  5.461628437042236e+00 -1.194350051879883e+01 5 1 1
196 2 -3.179919242858887e+00  5.056490898132324e+00 -1.161434745788574e+01 5 1 1
197 1 -3.115917682647705e+00  4.575650691986084e+00 -1.138330078125000e+01 5 1 1
198 4 -2.837927818298340e+00  4.150893688201904e+00 -1.120726108551025e+01 5 1 1
199 1 -2.404587268829346e+00  3.892708301544189e+00 -1.102223205566406e+01 5 1 1
200 1 -1.933542013168335e+00  3.848291635513306e+00 -1.076760768890381e+01 5 1 1
201 2 -1.556775212287903e+00  3.983634948730469e+00 -1.040925884246826e+01 5 1 1
202 2 -1.370446801185608e+00  4.196429729461670e+00 -9.952438354492188e+00 5 1 1
203 4 -1.398363232612610e+00  4.354944705963135e+00 -9.439817428588867e+00 5 1 1
204 3 -1.582938790321350e+00  4.348067760467529e+00 -8.935270309448242e+00 5 1 1
205 3 -1.807070612907410e+00  4.127530574798584e+00 -8.499602317810059e+00 5 1 1
206 3 -1.938627600669861e+00  3.726223468780518e+00 -8.167436599731445e+00 5 1 1
207 1 -1.880649447441101e+00  3.245727539062500e+00 -7.934098243713379e+00 5 1 1
208 3 -1.608178973197937e+00  2.817702293395996e+00 -7.757345199584961e+00 5 1 1
209 2 -1.177756071090698e+00  2.553872823715210e+00 -7.573454856872559e+00 5 1 1
210 3 -7.059251666069031e-01  2.503588676452637e+00 -7.321401596069336e+00 5 1 1
211 4 -3.249603211879730e-01  2.635061264038086e+00 -6.966061592102051e+00 5 1 1
212 1 -1.326188743114471e-01  2.847458362579346e+00 -6.511556148529053e+00 5 1 1
213 1  3.373850584030151e-01  4.810906410217285e+00 -1.194693803787231e+00 5 1 1
214 3  7.255813479423523e-01  5.071709632873535e+00 -9.301776885986328e-01 5 1 1
215 4  1.202807426452637e+00  5.312219142913818e+00 -8.745269775390625e-01 5 1 1
216 4  1.637627959251404e+00  5.580268859863281e+00 -1.041148781776428e+00 5 1 1
217 3  1.914731979370117e+00  5.913231849670410e+00 -1.359004378318787e+00 5 1 1
218 1  1.978730320930481e+00  6.323820590972900e+00 -1.699604153633118e+00 5 1 1
219 2  1.855163455009460e+00  6.795259475708008e+00 -1.925810456275940e+00 5 1 1
220 3  1.640878200531006e+00  7.287629604339600e+00 -1.943952322006226e+00 5 1 1
221 3  1.467162847518921e+00  7.753102302551270e+00 -1.739400744438171e+00 5 1 1
222 1  1.449879288673401e+00  8.154035568237305e+00 -1.382134079933167e+00 5 1 1
223 2  1.645486712455750e+00  8.477321624755859e+00 -1.000151276588440e+00 5 1 1
224 2  2.029549360275269e+00  8.739336967468262e+00 -7.308357357978821e-01 5 1 1
225 1  2.506020307540894e+00  8.979778289794922e+00 -6.687726378440857e-01 5 1 1
226 2  2.943777322769165e+00  9.246464729309082e+00 -8.298044800758362e-01 5 1 1
227 4  3.226378202438354e+00  9.577319145202637e+00 -1.145019531250000e+00 5 1 1
228 1  3.296331882476807e+00  9.985844612121582e+00 -1.486924648284912e+00 5 1 1
229 4  3.176954030990601e+00  1.045603561401367e+01 -1.717895746231079e+00 5 1 1
230 3  2.963479042053223e+00  1.094847965240479e+01 -1.742436885833740e+00 5 1 1
231 2  2.786866426467896e+00  1.141530990600586e+01 -1.543506145477295e+00 5 1 1

# Atom-ID, translational, rotational velocity
Velocities

1  0.000000000000000e+00  0.000000000000000e+00  0.000000000000000e+00  0.000000000000000e+00  0.000000000000000e+00  0.000000000000000e+00
2  0.000000000000000e+00  0.000000000000000e+00  0.000000000000000e+00  0.000000000000000e+00  0.000000000000000e+00  0.000000000000000e+00
3  0.000000000000000e+00  0.000000000000000e+00  0.000000000000000e+00  0.000000000000000e+00  0.000000000000000e+00  0.000000000000000e+00
4  0.000000000000000e+00  0.000000000000000e+00  0.000000000000000e+00  0.000000000000000e+00  0.000000000000000e+00  0.000000000000000e+00
5  0.000000000000000e+00  0.000000000000000e+00  0.000000000000000e+00  0.000000000000000e+00  0.000000000000000e+00  0.000000000000000e+00
6  0.000000000000000e+00  0.000000000000000e+00  0.000000000000000e+00  0.000000000000000e+00  0.000000000000000e+00  0.000000000000000e+00
7  0.000000000000000e+00  0.000000000000000e+00  0.000000000000000e+00  0.000000000000000e+00  0.000000000000000e+00  0.000000000000000e+00
8  0.000000000000000e+00  0.000000000000000e+00  0.000000000000000e+00  0.000000000000000e+00  0.000000000000000e+00  0.000000000000000e+00
9  0.000000000000000e+00  0.000000000000000e+00  0.000000000000000e+00  0.000000000000000e+00  0.000000000000000e+00  0.000000000000000e+00
10  0.000000000000000e+00  0.000000000000000e+00  0.000000000000000e+00  0.000000000000000e+00  0.000000000000000e+00  0.000000000000000e+00
11  0.000000000000000e+00  0.000000000000000e+00  0.000000000000000e+00  0.000000000000000e+00  0.000000000000000e+00  0.000000000000000e+00
12  0.000000000000000e+00  0.000000000000000e+00  0.000000000000000e+00  0.000000000000000e+00  0.000000000000000e+00  0.000000000000000e+00
13  0.000000000000000e+00  0.000000000000000e+00  0.000000000000000e+00  0.000000000000000e+00  0.000000000000000e+00  0.000000000000000e+00
14  0.000000000000000e+00  0.000000000000000e+00  0.000000000000000e+00  0.000000000000000e+00  0.000000000000000e+00  0.000000000000000e+00
15  0.000000000000000e+00  0.000000000000000e+00  0.000000000000000e+00  0.000000000000000e+00  0.000000000000000e+00  0.000000000000000e+00
16  0.000000000000000e+00  0.000000000000000e+00  0.000000000000000e+00  0.000000000000000e+00  0.000000000000000e+00  0.000000000000000e+00
17  0.000000000000000e+00  0.000000000000000e+00  0.000000000000000e+00  0.000000000000000e+00  0.000000000000000e+00  0.000000000000000e+00
18  0.000000000000000e+00  0.000000000000000e+00  0.000000000000000e+00  0.000000000000000e+00  0.000000000000000e+00  0.000000000000000e+00
19  0.000000000000000e+00  0.000000000000000e+00  0.000000000000000e+00  0.000000000000000e+00  0.000000000000000e+00  0.000000000000000e+00
20  0.000000000000000e+00  0.000000000000000e+00  0.000000000000000e+00  0.000000000000000e+00  0.000000000000000e+00  0.000000000000000e+00
21  0.000000000000000e+00  0.000000000000000e+00  0.000000000000000e+00  0.000000000000000e+00  0.000000000000000e+00  0.000000000000000e+00
22  0.000000000000000e+00  0.000000000000000e+00  0.000000000000000e+00  0.000000000000000e+00  0.000000000000000e+00  0.000000000000000e+00
23  0.000000000000000e+00  0.000000000000000e+00  0.000000000000000e+00  0.000000000000000e+00  0.000000000000000e+00  0.000000000000000e+00
24  0.000000000000000e+00  0.000000000000000e+00  0.000000000000000e+00  0.000000000000000e+00  0.000000000000000e+00  0.000000000000000e+00
25  0.000000000000000e+00  0.000000000000000e+00  0.000000000000000e+00  0.000000000000000e+00  0.000000000000000e+00  0.000000000000000e+00
26  0.000000000000000e+00  0.000000000000000e+00  0.000000000000000e+00  0.000000000000000e+00  0.000000000000000e+00  0.000000000000000e+00
27  0.000000000000000e+00  0.000000000000000e+00  0.000000000000000e+00  0.000000000000000e+00  0.000000000000000e+00  0.000000000000000e+00
28  0.000000000000000e+00  0.000000000000000e+00  0.000000000000000e+00  0.000000000000000e+00  0.000000000000000e+00  0.000000000000000e+00
29  0.000000000000000e+00  0.000000000000000e+00  0.000000000000000e+00  0.000000000000000e+00  0.000000000000000e+00  0.000000000000000e+00
30  0.000000000000000e+00  0.000000000000000e+00  0.000000000000000e+00  0.000000000000000e+00  0.000000000000000e+00  0.000000000000000e+00
31  0.000000000000000e+00  0.000000000000000e+00  0.000000000000000e+00  0.000000000000000e+00  0.000000000000000e+00  0.000000000000000e+00
32  0.000000000000000e+00  0.000000000000000e+00  0.000000000000000e+00  0.000000000000000e+00  0.000000000000000e+00  0.000000000000000e+00
33  0.000000000000000e+00  0.000000000000000e+00  0.000000000000000e+00  0.000000000000000e+00  0.000000000000000e+00  0.000000000000000e+00
34  0.000000000000000e+00  0.000000000000000e+00  0.000000000000000e+00  0.000000000000000e+00  0.000000000000000e+00  0.000000000000000e+00
35  0.000000000000000e+00  0.000000000000000e+00  0.000000000000000e+00  0.000000000000000e+00  0.000000000000000e+00  0.000000000000000e+00
36  0.000000000000000e+00  0.000000000000000e+00  0.000000000000000e+00  0.000000000000000e+00  0.000000000000000e+00  0.000000000000000e+00
37  0.000000000000000e+00  0.000000000000000e+00  0.000000000000000e+00  0.000000000000000e+00  0.000000000000000e+00  0.000000000000000e+00
38  0.000000000000000e+00  0.000000000000000e+00  0.000000000000000e+00  0.000000000000000e+00  0.000000000000000e+00  0.000000000000000e+00
39  0.000000000000000e+00  0.000000000000000e+00  0.000000000000000e+00  0.000000000000000e+00  0.000000000000000e+00  0.000000000000000e+00
40  0.000000000000000e+00  0.000000000000000e+00  0.000000000000000e+00  0.000000000000000e+00  0.000000000000000e+00  0.000000000000000e+00
41  0.000000000000000e+00  0.000000000000000e+00  0.000000000000000e+00  0.000000000000000e+00  0.000000000000000e+00  0.000000000000000e+00
42  0.000000000000000e+00  0.000000000000000e+00  0.000000000000000e+00  0.000000000000000e+00  0.000000000000000e+00  0.000000000000000e+00
43  0.000000000000000e+00  0.000000000000000e+00  0.000000000000000e+00  0.000000000000000e+00  0.000000000000000e+00  0.000000000000000e+00
44  0.000000000000000e+00  0.000000000000000e+00  0.000000000000000e+00  0.000000000000000e+00  0.000000000000000e+00  0.000000000000000e+00
45  0.000000000000000e+00  0.000000000000000e+00  0.000000000000000e+00  0.000000000000000e+00  0.000000000000000e+00  0.000000000000000e+00
46  0.000000000000000e+00  0.000000000000000e+00  0.000000000000000e+00  0.000000000000000e+00  0.000000000000000e+00  0.000000000000000e+00
47  0.000000000000000e+00  0.000000000000000e+00  0.000000000000000e+00  0.000000000000000e+00  0.000000000000000e+00  0.000000000000000e+00
48  0.000000000000000e+00  0.000000000000000e+00  0.000000000000000e+00  0.000000000000000e+00  0.000000000000000e+00  0.000000000000000e+00
49  0.000000000000000e+00  0.000000000000000e+00  0.000000000000000e+00  0.000000000000000e+00  0.000000000000000e+00  0.000000000000000e+00
50  0.000000000000000e+00  0.000000000000000e+00  0.000000000000000e+00  0.000000000000000e+00  0.000000000000000e+00  0.000000000000000e+00
51  0.000000000000000e+00  0.000000000000000e+00  0.000000000000000e+00  0.000000000000000e+00  0.000000000000000e+00  0.000000000000000e+00
52  0.000000000000000e+00  0.000000000000000e+00  0.000000000000000e+00  0.000000000000000e+00  0.000000000000000e+00  0.000000000000000e+00
53  0.000000000000000e+00  0.000000000000000e+00  0.000000000000000e+00  0.000000000000000e+00  0.000000000000000e+00  0.000000000000000e+00
54  0.000000000000000e+00  0.000000000000000e+00  0.000000000000000e+00  0.000000000000000e+00  0.000000000000000e+00  0.000000000000000e+00
55  0.000000000000000e+00  0.000000000000000e+00  0.000000000000000e+00  0.000000000000000e+00  0.000000000000000e+00  0.000000000000000e+00
56  0.000000000000000e+00  0.000000000000000e+00  0.000000000000000e+00  0.000000000000000e+00  0.000000000000000e+00  0.000000000000000e+00
57  0.000000000000000e+00  0.000000000000000e+00  0.000000000000000e+00  0.000000000000000e+00  0.000000000000000e+00  0.000000000000000e+00
58  0.000000000000000e+00  0.000000000000000e+00  0.000000000000000e+00  0.000000000000000e+00  0.000000000000000e+00  0.000000000000000e+00
59  0.000000000000000e+00  0.000000000000000e+00  0.000000000000000e+00  0.000000000000000e+00  0.000000000000000e+00  0.000000000000000e+00
60  0.000000000000000e+00  0.000000000000000e+00  0.000000000000000e+00  0.000000000000000e+00  0.000000000000000e+00  0.000000000000000e+00
61  0.000000000000000e+00  0.000000000000000e+00  0.000000000000000e+00  0.000000000000000e+00  0.000000000000000e+00  0.000000000000000e+00
62  0.000000000000000e+00  0.000000000000000e+00  0.000000000000000e+00  0.000000000000000e+00  0.000000000000000e+00  0.000000000000000e+00
63  0.000000000000000e+00  0.000000000000000e+00  0.000000000000000e+00  0.000000000000000e+00  0.000000000000000e+00  0.000000000000000e+00
64  0.000000000000000e+00  0.000000000000000e+00  0.000000000000000e+00  0.000000000000000e+00  0.000000000000000e+00  0.000000000000000e+00
65  0.000000000000000e+00  0.000000000000000e+00  0.000000000000000e+00  0.000000000000000e+00  0.000000000000000e+00  0.000000000000000e+00
66  0.000000000000000e+00  0.000000000000000e+00  0.000000000000000e+00  0.000000000000000e+00  0.000000000000000e+00  0.000000000000000e+00
67  0.000000000000000e+00  0.000000000000000e+00  0.000000000000000e+00  0.000000000000000e+00  0.000000000000000e+00  0.000000000000000e+00
68  0.000000000000000e+00  0.000000000000000e+00  0.000000000000000e+00  0.000000000000000e+00  0.000000000000000e+00  0.000000000000000e+00
69  0.000000000000000e+00  0.000000000000000e+00  0.000000000000000e+00  0.000000000000000e+00  0.000000000000000e+00  0.000000000000000e+00
70  0.000000000000000e+00  0.000000000000000e+00  0.000000000000000e+00  0.000000000000000e+00  0.000000000000000e+00  0.000000000000000e+00
71  0.000000000000000e+00  0.000000000000000e+00  0.000000000000000e+00  0.000000000000000e+00  0.000000000000000e+00  0.000000000000000e+00
72  0.000000000000000e+00  0.000000000000000e+00  0.000000000000000e+00  0.000000000000000e+00  0.000000000000000e+00  0.000000000000000e+00
73  0.000000000000000e+00  0.000000000000000e+00  0.000000000000000e+00  0.000000000000000e+00  0.000000000000000e+00  0.000000000000000e+00
74  0.000000000000000e+00  0.000000000000000e+00  0.000000000000000e+00  0.000000000000000e+00  0.000000000000000e+00  0.000000000000000e+00
75  0.000000000000000e+00  0.000000000000000e+00  0.000000000000000e+00  0.000000000000000e+00  0.000000000000000e+00  0.000000000000000e+00
76  0.000000000000000e+00  0.000000000000000e+00  0.000000000000000e+00  0.000000000000000e+00  0.000000000000000e+00  0.000000000000000e+00
77  0.000000000000000e+00  0.000000000000000e+00  0.000000000000000e+00  0.000000000000000e+00  0.000000000000000e+00  0.000000000000000e+00
78  0.000000000000000e+00  0.000000000000000e+00  0.000000000000000e+00  0.000000000000000e+00  0.000000000000000e+00  0.000000000000000e+00